121
     RDKit          2D

 33 34  0  0  1  0  0  0  0  0999 V2000
   -1.2649    2.7658    0.0000 P   0  0  0  0  0  0  0  0  0  0  0  0
   -3.8583    2.6098    0.0000 P   0  0  0  0  0  0  0  0  0  0  0  0
    2.8399    0.6185    0.0000 O   0  0  0  0  0  0  0  0  0  0  0  0
    0.7023   -2.6213    0.0000 O   0  0  0  0  0  0  0  0  0  0  0  0
    3.9293   -3.1069    0.0000 O   0  0  0  0  0  0  0  0  0  0  0  0
    0.0769    2.0952    0.0000 O   0  0  0  0  0  0  0  0  0  0  0  0
   -2.6066    3.4365    0.0000 O   0  0  0  0  0  0  0  0  0  0  0  0
   -5.1099    1.7832    0.0000 O   0  0  0  0  0  0  0  0  0  0  0  0
   -6.0914   -3.5354    0.0000 O   0  0  0  0  0  0  0  0  0  0  0  0
    5.8146   -2.7507    0.0000 O   0  0  0  0  0  0  0  0  0  0  0  0
   -7.6132    0.1299    0.0000 O   0  0  0  0  0  0  0  0  0  0  0  0
   -0.5942    4.1075    0.0000 O   0  0  0  0  0  0  0  0  0  0  0  0
   -1.9355    1.4241    0.0000 O   0  0  0  0  0  0  0  0  0  0  0  0
   -8.3494   -3.4699    0.0000 O   0  0  0  0  0  0  0  0  0  0  0  0
   -3.0316    1.3582    0.0000 O   0  0  0  0  0  0  0  0  0  0  0  0
   -4.6849    3.8615    0.0000 O   0  0  0  0  0  0  0  0  0  0  0  0
    5.3884   -0.1878    0.0000 N   0  0  0  0  0  0  0  0  0  0  0  0
    7.8210   -1.1001    0.0000 N   0  0  0  0  0  0  0  0  0  0  0  0
    9.8274    0.5504    0.0000 N   0  0  0  0  0  0  0  0  0  0  0  0
    1.7547   -1.5524    0.0000 C   0  0  0  0  0  0  0  0  0  0  0  0
    3.2380   -1.7756    0.0000 C   0  0  0  0  0  0  0  0  0  0  0  0
    1.5087   -0.0728    0.0000 C   0  0  0  0  0  0  0  0  0  0  0  0
    3.9087   -0.4339    0.0000 C   0  0  0  0  0  0  0  0  0  0  0  0
    0.1669    0.5979    0.0000 C   0  0  0  0  0  0  0  0  0  0  0  0
    5.9151    1.2166    0.0000 C   0  0  0  0  0  0  0  0  0  0  0  0
    6.3413   -1.3462    0.0000 C   0  0  0  0  0  0  0  0  0  0  0  0
   -6.1814   -2.0381    0.0000 C   0  0  0  0  0  0  0  0  0  0  0  0
   -6.2715   -0.5408    0.0000 C   0  0  0  0  0  0  0  0  0  0  0  0
    7.3948    1.4627    0.0000 C   0  0  0  0  0  0  0  0  0  0  0  0
   -5.0199    0.2859    0.0000 C   0  0  0  0  0  0  0  0  0  0  0  0
   -7.6787   -2.1281    0.0000 C   0  0  0  0  0  0  0  0  0  0  0  0
   -4.6842   -1.9480    0.0000 C   0  0  0  0  0  0  0  0  0  0  0  0
    8.3477    0.3043    0.0000 C   0  0  0  0  0  0  0  0  0  0  0  0
  1  6  1  0
  1  7  1  0
  1 12  1  0
  1 13  2  0
  2  7  1  0
  2  8  1  0
  2 15  1  0
  2 16  2  0
  3 22  1  0
  3 23  1  0
  4 20  1  0
  5 21  1  0
  6 24  1  0
  8 30  1  0
  9 27  1  0
 10 26  2  0
 11 28  1  0
 14 31  1  0
 17 23  1  0
 17 25  1  0
 17 26  1  0
 18 26  1  0
 18 33  2  0
 19 33  1  0
 20 21  1  0
 20 22  1  0
 21 23  1  0
 22 24  1  0
 25 29  2  0
 27 28  1  0
 27 31  1  0
 27 32  1  0
 28 30  1  0
 29 33  1  0
M  END
>  <PUBCHEM_COMPOUND_CID>  (1) 
121

>  <PUBCHEM_COMPOUND_CANONICALIZED>  (1) 
1

>  <PUBCHEM_CACTVS_COMPLEXITY>  (1) 
885

>  <PUBCHEM_CACTVS_HBOND_ACCEPTOR>  (1) 
14

>  <PUBCHEM_CACTVS_HBOND_DONOR>  (1) 
8

>  <PUBCHEM_CACTVS_ROTATABLE_BOND>  (1) 
11

>  <PUBCHEM_CACTVS_SUBSKEYS>  (1) 
AAADceBzPAMAAAAAAAAAAAAAAAAAASAAAAAgAAAAAAAAAAAAAAAAHgAQCCAADFThgAYDAANABxCoQCJmdICAAAEAAgAIAAAYABCDEAIAgAAOQAAHFgITAADwMAIIAAAAAAAAAAAAAAAAAAAAAAAAAAAAAA==

>  <PUBCHEM_IUPAC_OPENEYE_NAME>  (1) 
[[5-(4-amino-2-oxo-pyrimidin-1-yl)-3,4-dihydroxy-tetrahydrofuran-2-yl]methoxy-hydroxy-phosphoryl] (2,3,4-trihydroxy-3-methyl-butyl) hydrogen phosphate

>  <PUBCHEM_IUPAC_CAS_NAME>  (1) 
[[5-(4-amino-2-oxo-1-pyrimidinyl)-3,4-dihydroxy-2-oxolanyl]methoxy-hydroxyphosphoryl] (2,3,4-trihydroxy-3-methylbutyl) hydrogen phosphate

>  <PUBCHEM_IUPAC_NAME_MARKUP>  (1) 
[[5-(4-amino-2-oxopyrimidin-1-yl)-3,4-dihydroxyoxolan-2-yl]methoxy-hydroxyphosphoryl] (2,3,4-trihydroxy-3-methylbutyl) hydrogen phosphate

>  <PUBCHEM_IUPAC_NAME>  (1) 
[[5-(4-amino-2-oxopyrimidin-1-yl)-3,4-dihydroxyoxolan-2-yl]methoxy-hydroxyphosphoryl] (2,3,4-trihydroxy-3-methylbutyl) hydrogen phosphate

>  <PUBCHEM_IUPAC_SYSTEMATIC_NAME>  (1) 
[[5-(4-azanyl-2-oxidanylidene-pyrimidin-1-yl)-3,4-bis(oxidanyl)oxolan-2-yl]methoxy-oxidanyl-phosphoryl] [3-methyl-2,3,4-tris(oxidanyl)butyl] hydrogen phosphate

>  <PUBCHEM_IUPAC_TRADITIONAL_NAME>  (1) 
[[5-(4-amino-2-keto-pyrimidin-1-yl)-3,4-dihydroxy-tetrahydrofuran-2-yl]methoxy-hydroxy-phosphoryl] (2,3,4-trihydroxy-3-methyl-butyl) hydrogen phosphate

>  <PUBCHEM_IUPAC_INCHI>  (1) 
InChI=1S/C14H25N3O14P2/c1-14(23,6-18)8(19)5-29-33(26,27)31-32(24,25)28-4-7-10(20)11(21)12(30-7)17-3-2-9(15)16-13(17)22/h2-3,7-8,10-12,18-21,23H,4-6H2,1H3,(H,24,25)(H,26,27)(H2,15,16,22)

>  <PUBCHEM_IUPAC_INCHIKEY>  (1) 
YFAUKWZNPVBCFF-UHFFFAOYSA-N

>  <PUBCHEM_XLOGP3>  (1) 
-5.7

>  <PUBCHEM_EXACT_MASS>  (1) 
521.081176

>  <PUBCHEM_MOLECULAR_FORMULA>  (1) 
C14H25N3O14P2

>  <PUBCHEM_MOLECULAR_WEIGHT>  (1) 
521.31

>  <PUBCHEM_OPENEYE_CAN_SMILES>  (1) 
CC(CO)(C(COP(=O)(O)OP(=O)(O)OCC1C(C(C(O1)N2C=CC(=NC2=O)N)O)O)O)O

>  <PUBCHEM_OPENEYE_ISO_SMILES>  (1) 
CC(CO)(C(COP(=O)(O)OP(=O)(O)OCC1C(C(C(O1)N2C=CC(=NC2=O)N)O)O)O)O

>  <PUBCHEM_CACTVS_TPSA>  (1) 
271

>  <PUBCHEM_MONOISOTOPIC_WEIGHT>  (1) 
521.081176

>  <PUBCHEM_TOTAL_CHARGE>  (1) 
0

>  <PUBCHEM_HEAVY_ATOM_COUNT>  (1) 
33

>  <PUBCHEM_ATOM_DEF_STEREO_COUNT>  (1) 
0

>  <PUBCHEM_ATOM_UDEF_STEREO_COUNT>  (1) 
6

>  <PUBCHEM_BOND_DEF_STEREO_COUNT>  (1) 
0

>  <PUBCHEM_BOND_UDEF_STEREO_COUNT>  (1) 
0

>  <PUBCHEM_ISOTOPIC_ATOM_COUNT>  (1) 
0

>  <PUBCHEM_COMPONENT_COUNT>  (1) 
1

>  <PUBCHEM_CACTVS_TAUTO_COUNT>  (1) 
-1

>  <PUBCHEM_COORDINATE_TYPE>  (1) 
1
5
255

>  <PUBCHEM_BONDANNOTATIONS>  (1) 
28  11  3
23  17  3
17  25  8
17  26  8
18  26  8
18  33  8
22  24  3
25  29  8
29  33  8
20  4  3
21  5  3
27  9  3

$$$$
