126
     RDKit          2D

  9  9  0  0  0  0  0  0  0  0999 V2000
    3.4016    0.3512    0.0000 O   0  0  0  0  0  0  0  0  0  0  0  0
   -3.4653    0.6606    0.0000 O   0  0  0  0  0  0  0  0  0  0  0  0
   -1.0511   -0.2995    0.0000 C   0  0  0  0  0  0  0  0  0  0  0  0
   -0.4968    1.0944    0.0000 C   0  0  0  0  0  0  0  0  0  0  0  0
   -0.1211   -1.4764    0.0000 C   0  0  0  0  0  0  0  0  0  0  0  0
    1.9174    0.1343    0.0000 C   0  0  0  0  0  0  0  0  0  0  0  0
    0.9874    1.3113    0.0000 C   0  0  0  0  0  0  0  0  0  0  0  0
    1.3631   -1.2595    0.0000 C   0  0  0  0  0  0  0  0  0  0  0  0
   -2.5353   -0.5163    0.0000 C   0  0  0  0  0  0  0  0  0  0  0  0
  1  6  1  0
  2  9  2  0
  3  4  2  0
  3  5  1  0
  3  9  1  0
  4  7  1  0
  5  8  2  0
  6  7  2  0
  6  8  1  0
M  END
>  <PUBCHEM_COMPOUND_CID>  (1) 
126

>  <PUBCHEM_COMPOUND_CANONICALIZED>  (1) 
1

>  <PUBCHEM_CACTVS_COMPLEXITY>  (1) 
93.1

>  <PUBCHEM_CACTVS_HBOND_ACCEPTOR>  (1) 
2

>  <PUBCHEM_CACTVS_HBOND_DONOR>  (1) 
1

>  <PUBCHEM_CACTVS_ROTATABLE_BOND>  (1) 
1

>  <PUBCHEM_CACTVS_SUBSKEYS>  (1) 
AAADcYBgMAAAAAAAAAAAAAAAAAAAAAAAAAAwAAAAAAAAAAABAAAAGgAACAAADASgmAIwBoAAAgCIAihSgAACAAAkIAAIiAEGCMgIJjKCFRKAcQAkwBEImYeIzADOIAAAAAAAAABAAAAAAAAAAAAAAAAAAA==

>  <PUBCHEM_IUPAC_OPENEYE_NAME>  (1) 
4-hydroxybenzaldehyde

>  <PUBCHEM_IUPAC_CAS_NAME>  (1) 
4-hydroxybenzaldehyde

>  <PUBCHEM_IUPAC_NAME_MARKUP>  (1) 
4-hydroxybenzaldehyde

>  <PUBCHEM_IUPAC_NAME>  (1) 
4-hydroxybenzaldehyde

>  <PUBCHEM_IUPAC_SYSTEMATIC_NAME>  (1) 
4-oxidanylbenzaldehyde

>  <PUBCHEM_IUPAC_TRADITIONAL_NAME>  (1) 
4-hydroxybenzaldehyde

>  <PUBCHEM_IUPAC_INCHI>  (1) 
InChI=1S/C7H6O2/c8-5-6-1-3-7(9)4-2-6/h1-5,9H

>  <PUBCHEM_IUPAC_INCHIKEY>  (1) 
RGHHSNMVTDWUBI-UHFFFAOYSA-N

>  <PUBCHEM_XLOGP3>  (1) 
1.4

>  <PUBCHEM_EXACT_MASS>  (1) 
122.036779

>  <PUBCHEM_MOLECULAR_FORMULA>  (1) 
C7H6O2

>  <PUBCHEM_MOLECULAR_WEIGHT>  (1) 
122.12

>  <PUBCHEM_OPENEYE_CAN_SMILES>  (1) 
C1=CC(=CC=C1C=O)O

>  <PUBCHEM_OPENEYE_ISO_SMILES>  (1) 
C1=CC(=CC=C1C=O)O

>  <PUBCHEM_CACTVS_TPSA>  (1) 
37.3

>  <PUBCHEM_MONOISOTOPIC_WEIGHT>  (1) 
122.036779

>  <PUBCHEM_TOTAL_CHARGE>  (1) 
0

>  <PUBCHEM_HEAVY_ATOM_COUNT>  (1) 
9

>  <PUBCHEM_ATOM_DEF_STEREO_COUNT>  (1) 
0

>  <PUBCHEM_ATOM_UDEF_STEREO_COUNT>  (1) 
0

>  <PUBCHEM_BOND_DEF_STEREO_COUNT>  (1) 
0

>  <PUBCHEM_BOND_UDEF_STEREO_COUNT>  (1) 
0

>  <PUBCHEM_ISOTOPIC_ATOM_COUNT>  (1) 
0

>  <PUBCHEM_COMPONENT_COUNT>  (1) 
1

>  <PUBCHEM_CACTVS_TAUTO_COUNT>  (1) 
-1

>  <PUBCHEM_COORDINATE_TYPE>  (1) 
1
5
255

>  <PUBCHEM_BONDANNOTATIONS>  (1) 
3  4  8
3  5  8
4  7  8
5  8  8
6  7  8
6  8  8

$$$$
