127
     RDKit          2D

 11 11  0  0  0  0  0  0  0  0999 V2000
    4.0738    0.6025    0.0000 O   0  0  0  0  0  0  0  0  0  0  0  0
   -4.2313   -0.2780    0.0000 O   0  0  0  0  0  0  0  0  0  0  0  0
   -2.3942    1.5592    0.0000 O   0  0  0  0  0  0  0  0  0  0  0  0
   -0.2729   -0.5622    0.0000 C   0  0  0  0  0  0  0  0  0  0  0  0
   -1.7218   -0.9504    0.0000 C   0  0  0  0  0  0  0  0  0  0  0  0
    0.1153    0.8867    0.0000 C   0  0  0  0  0  0  0  0  0  0  0  0
    0.7878   -1.6228    0.0000 C   0  0  0  0  0  0  0  0  0  0  0  0
    1.5642    1.2750    0.0000 C   0  0  0  0  0  0  0  0  0  0  0  0
    2.2367   -1.2346    0.0000 C   0  0  0  0  0  0  0  0  0  0  0  0
    2.6249    0.2143    0.0000 C   0  0  0  0  0  0  0  0  0  0  0  0
   -2.7824    0.1103    0.0000 C   0  0  0  0  0  0  0  0  0  0  0  0
  1 10  1  0
  2 11  1  0
  3 11  2  0
  4  5  1  0
  4  6  2  0
  4  7  1  0
  5 11  1  0
  6  8  1  0
  7  9  2  0
  8 10  2  0
  9 10  1  0
M  END
>  <PUBCHEM_COMPOUND_CID>  (1) 
127

>  <PUBCHEM_COMPOUND_CANONICALIZED>  (1) 
1

>  <PUBCHEM_CACTVS_COMPLEXITY>  (1) 
136

>  <PUBCHEM_CACTVS_HBOND_ACCEPTOR>  (1) 
3

>  <PUBCHEM_CACTVS_HBOND_DONOR>  (1) 
2

>  <PUBCHEM_CACTVS_ROTATABLE_BOND>  (1) 
2

>  <PUBCHEM_CACTVS_SUBSKEYS>  (1) 
AAADccBwMAAAAAAAAAAAAAAAAAAAAAAAAAAwAAAAAAAAAAABAAAAGgAACAAADASAmAAwDoAAAgCIAiDSCAACAAAgIAAIiAEGCIgIJjKCFRKAcAAkwBEImAeIyKCOIAAAAAAAAABAAAAAAAAAAAAAAAAAAA==

>  <PUBCHEM_IUPAC_OPENEYE_NAME>  (1) 
2-(4-hydroxyphenyl)acetic acid

>  <PUBCHEM_IUPAC_CAS_NAME>  (1) 
2-(4-hydroxyphenyl)acetic acid

>  <PUBCHEM_IUPAC_NAME_MARKUP>  (1) 
2-(4-hydroxyphenyl)acetic acid

>  <PUBCHEM_IUPAC_NAME>  (1) 
2-(4-hydroxyphenyl)acetic acid

>  <PUBCHEM_IUPAC_SYSTEMATIC_NAME>  (1) 
2-(4-hydroxyphenyl)ethanoic acid

>  <PUBCHEM_IUPAC_TRADITIONAL_NAME>  (1) 
2-(4-hydroxyphenyl)acetic acid

>  <PUBCHEM_IUPAC_INCHI>  (1) 
InChI=1S/C8H8O3/c9-7-3-1-6(2-4-7)5-8(10)11/h1-4,9H,5H2,(H,10,11)

>  <PUBCHEM_IUPAC_INCHIKEY>  (1) 
XQXPVVBIMDBYFF-UHFFFAOYSA-N

>  <PUBCHEM_XLOGP3>  (1) 
0.8

>  <PUBCHEM_EXACT_MASS>  (1) 
152.047344

>  <PUBCHEM_MOLECULAR_FORMULA>  (1) 
C8H8O3

>  <PUBCHEM_MOLECULAR_WEIGHT>  (1) 
152.15

>  <PUBCHEM_OPENEYE_CAN_SMILES>  (1) 
C1=CC(=CC=C1CC(=O)O)O

>  <PUBCHEM_OPENEYE_ISO_SMILES>  (1) 
C1=CC(=CC=C1CC(=O)O)O

>  <PUBCHEM_CACTVS_TPSA>  (1) 
57.5

>  <PUBCHEM_MONOISOTOPIC_WEIGHT>  (1) 
152.047344

>  <PUBCHEM_TOTAL_CHARGE>  (1) 
0

>  <PUBCHEM_HEAVY_ATOM_COUNT>  (1) 
11

>  <PUBCHEM_ATOM_DEF_STEREO_COUNT>  (1) 
0

>  <PUBCHEM_ATOM_UDEF_STEREO_COUNT>  (1) 
0

>  <PUBCHEM_BOND_DEF_STEREO_COUNT>  (1) 
0

>  <PUBCHEM_BOND_UDEF_STEREO_COUNT>  (1) 
0

>  <PUBCHEM_ISOTOPIC_ATOM_COUNT>  (1) 
0

>  <PUBCHEM_COMPONENT_COUNT>  (1) 
1

>  <PUBCHEM_CACTVS_TAUTO_COUNT>  (1) 
-1

>  <PUBCHEM_COORDINATE_TYPE>  (1) 
1
5
255

>  <PUBCHEM_BONDANNOTATIONS>  (1) 
4  6  8
4  7  8
6  8  8
7  9  8
8  10  8
9  10  8

$$$$
