131
     RDKit          2D

 19 18  0  0  1  0  0  0  0  0999 V2000
   -4.8131   -1.1059    0.0000 P   0  0  0  0  0  0  0  0  0  0  0  0
   -3.3664   -0.7095    0.0000 O   0  0  0  0  0  0  0  0  0  0  0  0
    0.2873    2.9852    0.0000 O   0  0  0  0  0  0  0  0  0  0  0  0
    0.5936   -0.9716    0.0000 O   0  0  0  0  0  0  0  0  0  0  0  0
   -5.2094    0.3408    0.0000 O   0  0  0  0  0  0  0  0  0  0  0  0
   -6.2598   -1.5022    0.0000 O   0  0  0  0  0  0  0  0  0  0  0  0
   -4.4167   -2.5526    0.0000 O   0  0  0  0  0  0  0  0  0  0  0  0
    7.4470   -0.4410    0.0000 O   0  0  0  0  0  0  0  0  0  0  0  0
    5.6201   -2.2884    0.0000 O   0  0  0  0  0  0  0  0  0  0  0  0
    2.4204    0.8757    0.0000 N   0  0  0  0  0  0  0  0  0  0  0  0
   -1.5395    1.1378    0.0000 C   0  0  0  0  0  0  0  0  0  0  0  0
   -0.0929    1.5341    0.0000 C   0  0  0  0  0  0  0  0  0  0  0  0
   -2.9862    0.7415    0.0000 C   0  0  0  0  0  0  0  0  0  0  0  0
   -1.9359    2.5845    0.0000 C   0  0  0  0  0  0  0  0  0  0  0  0
   -1.1432   -0.3089    0.0000 C   0  0  0  0  0  0  0  0  0  0  0  0
    0.9737    0.4794    0.0000 C   0  0  0  0  0  0  0  0  0  0  0  0
    3.4870   -0.1790    0.0000 C   0  0  0  0  0  0  0  0  0  0  0  0
    4.9337    0.2173    0.0000 C   0  0  0  0  0  0  0  0  0  0  0  0
    6.0003   -0.8374    0.0000 C   0  0  0  0  0  0  0  0  0  0  0  0
  1  2  1  0
  1  5  1  0
  1  6  1  0
  1  7  2  0
  2 13  1  0
  3 12  1  0
  4 16  2  0
  8 19  1  0
  9 19  2  0
 10 16  1  0
 10 17  1  0
 11 12  1  0
 11 13  1  0
 11 14  1  0
 11 15  1  0
 12 16  1  0
 17 18  1  0
 18 19  1  0
M  END
>  <PUBCHEM_COMPOUND_CID>  (1) 
131

>  <PUBCHEM_COMPOUND_CANONICALIZED>  (1) 
1

>  <PUBCHEM_CACTVS_COMPLEXITY>  (1) 
376

>  <PUBCHEM_CACTVS_HBOND_ACCEPTOR>  (1) 
8

>  <PUBCHEM_CACTVS_HBOND_DONOR>  (1) 
5

>  <PUBCHEM_CACTVS_ROTATABLE_BOND>  (1) 
8

>  <PUBCHEM_CACTVS_SUBSKEYS>  (1) 
AAADceByPAIAAAAAAAAAAAAAAAAAAAAAAAAAAAAAAAAAAAAAAAAAHgAQCCAADhThgAYCCALAAxAIQAGQGIIAAAAAAAAAAIFIAAACEBgAgAAEQAAHFgCQAAAiAAAJAAAAAAAAAAAAAAAAAAAAAAAAAAAAAA==

>  <PUBCHEM_IUPAC_OPENEYE_NAME>  (1) 
3-[(2-hydroxy-3,3-dimethyl-4-phosphonooxy-butanoyl)amino]propanoic acid

>  <PUBCHEM_IUPAC_CAS_NAME>  (1) 
3-[(2-hydroxy-3,3-dimethyl-1-oxo-4-phosphonooxybutyl)amino]propanoic acid

>  <PUBCHEM_IUPAC_NAME_MARKUP>  (1) 
3-[(2-hydroxy-3,3-dimethyl-4-phosphonooxybutanoyl)amino]propanoic acid

>  <PUBCHEM_IUPAC_NAME>  (1) 
3-[(2-hydroxy-3,3-dimethyl-4-phosphonooxybutanoyl)amino]propanoic acid

>  <PUBCHEM_IUPAC_SYSTEMATIC_NAME>  (1) 
3-[(3,3-dimethyl-2-oxidanyl-4-phosphonooxy-butanoyl)amino]propanoic acid

>  <PUBCHEM_IUPAC_TRADITIONAL_NAME>  (1) 
3-[(2-hydroxy-3,3-dimethyl-4-phosphonooxy-butanoyl)amino]propionic acid

>  <PUBCHEM_IUPAC_INCHI>  (1) 
InChI=1S/C9H18NO8P/c1-9(2,5-18-19(15,16)17)7(13)8(14)10-4-3-6(11)12/h7,13H,3-5H2,1-2H3,(H,10,14)(H,11,12)(H2,15,16,17)

>  <PUBCHEM_IUPAC_INCHIKEY>  (1) 
XHFVGHPGDLDEQO-UHFFFAOYSA-N

>  <PUBCHEM_XLOGP3_AA>  (1) 
-2.2

>  <PUBCHEM_EXACT_MASS>  (1) 
299.077004

>  <PUBCHEM_MOLECULAR_FORMULA>  (1) 
C9H18NO8P

>  <PUBCHEM_MOLECULAR_WEIGHT>  (1) 
299.21

>  <PUBCHEM_OPENEYE_CAN_SMILES>  (1) 
CC(C)(COP(=O)(O)O)C(C(=O)NCCC(=O)O)O

>  <PUBCHEM_OPENEYE_ISO_SMILES>  (1) 
CC(C)(COP(=O)(O)O)C(C(=O)NCCC(=O)O)O

>  <PUBCHEM_CACTVS_TPSA>  (1) 
153

>  <PUBCHEM_MONOISOTOPIC_WEIGHT>  (1) 
299.077004

>  <PUBCHEM_TOTAL_CHARGE>  (1) 
0

>  <PUBCHEM_HEAVY_ATOM_COUNT>  (1) 
19

>  <PUBCHEM_ATOM_DEF_STEREO_COUNT>  (1) 
0

>  <PUBCHEM_ATOM_UDEF_STEREO_COUNT>  (1) 
1

>  <PUBCHEM_BOND_DEF_STEREO_COUNT>  (1) 
0

>  <PUBCHEM_BOND_UDEF_STEREO_COUNT>  (1) 
0

>  <PUBCHEM_ISOTOPIC_ATOM_COUNT>  (1) 
0

>  <PUBCHEM_COMPONENT_COUNT>  (1) 
1

>  <PUBCHEM_CACTVS_TAUTO_COUNT>  (1) 
-1

>  <PUBCHEM_COORDINATE_TYPE>  (1) 
1
5
255

>  <PUBCHEM_BONDANNOTATIONS>  (1) 
12  3  3

$$$$
