132
     RDKit          2D

 25 24  0  0  1  0  0  0  0  0999 V2000
    7.2810   -2.7133    0.0000 S   0  0  0  0  0  0  0  0  0  0  0  0
   -6.9747   -1.4794    0.0000 P   0  0  0  0  0  0  0  0  0  0  0  0
   -5.5844   -0.9163    0.0000 O   0  0  0  0  0  0  0  0  0  0  0  0
   -2.3888    3.1810    0.0000 O   0  0  0  0  0  0  0  0  0  0  0  0
   -1.6210   -0.7126    0.0000 O   0  0  0  0  0  0  0  0  0  0  0  0
   -7.5378   -0.0891    0.0000 O   0  0  0  0  0  0  0  0  0  0  0  0
   -8.3650   -2.0424    0.0000 O   0  0  0  0  0  0  0  0  0  0  0  0
   -6.4117   -2.8697    0.0000 O   0  0  0  0  0  0  0  0  0  0  0  0
    3.5251   -1.4314    0.0000 O   0  0  0  0  0  0  0  0  0  0  0  0
    8.8788   -0.6647    0.0000 O   0  0  0  0  0  0  0  0  0  0  0  0
    7.9036    1.7434    0.0000 O   0  0  0  0  0  0  0  0  0  0  0  0
   -0.0232    1.3361    0.0000 N   0  0  0  0  0  0  0  0  0  0  0  0
    5.1229    0.6172    0.0000 N   0  0  0  0  0  0  0  0  0  0  0  0
   -3.9866    1.1324    0.0000 C   0  0  0  0  0  0  0  0  0  0  0  0
   -2.5963    1.6955    0.0000 C   0  0  0  0  0  0  0  0  0  0  0  0
   -5.3769    0.5693    0.0000 C   0  0  0  0  0  0  0  0  0  0  0  0
   -4.5497    2.5227    0.0000 C   0  0  0  0  0  0  0  0  0  0  0  0
   -3.4236   -0.2579    0.0000 C   0  0  0  0  0  0  0  0  0  0  0  0
   -1.4135    0.7730    0.0000 C   0  0  0  0  0  0  0  0  0  0  0  0
    1.1596    0.4136    0.0000 C   0  0  0  0  0  0  0  0  0  0  0  0
    2.5499    0.9767    0.0000 C   0  0  0  0  0  0  0  0  0  0  0  0
    3.7326    0.0542    0.0000 C   0  0  0  0  0  0  0  0  0  0  0  0
    6.3057   -0.3052    0.0000 C   0  0  0  0  0  0  0  0  0  0  0  0
    6.0982   -1.7908    0.0000 C   0  0  0  0  0  0  0  0  0  0  0  0
    7.6960    0.2578    0.0000 C   0  0  0  0  0  0  0  0  0  0  0  0
  1 24  1  0
  2  3  1  0
  2  6  1  0
  2  7  1  0
  2  8  2  0
  3 16  1  0
  4 15  1  0
  5 19  2  0
  9 22  2  0
 10 25  1  0
 11 25  2  0
 12 19  1  0
 12 20  1  0
 13 22  1  0
 13 23  1  0
 14 15  1  0
 14 16  1  0
 14 17  1  0
 14 18  1  0
 15 19  1  0
 20 21  1  0
 21 22  1  0
 23 24  1  0
 23 25  1  0
M  END
>  <PUBCHEM_COMPOUND_CID>  (1) 
132

>  <PUBCHEM_COMPOUND_CANONICALIZED>  (1) 
1

>  <PUBCHEM_CACTVS_COMPLEXITY>  (1) 
537

>  <PUBCHEM_CACTVS_HBOND_ACCEPTOR>  (1) 
10

>  <PUBCHEM_CACTVS_HBOND_DONOR>  (1) 
7

>  <PUBCHEM_CACTVS_ROTATABLE_BOND>  (1) 
11

>  <PUBCHEM_CACTVS_SUBSKEYS>  (1) 
AAADceBzPAJAAAAAAAAAAAAAAAAAAAAAAAAAAAAAAAAAAAAAAAAAHgQQCCAADjzlwAaCCALAAxQIQAGQGIIAAAAAAAAAAIHIAAACEBgAwCAEQAAFFgCQAAAiAAAJAAAAAAAAAAAAAAAAAAAAAAAAAAAAAA==

>  <PUBCHEM_IUPAC_OPENEYE_NAME>  (1) 
2-[3-[(2-hydroxy-3,3-dimethyl-4-phosphonooxy-butanoyl)amino]propanoylamino]-3-sulfanyl-propanoic acid

>  <PUBCHEM_IUPAC_CAS_NAME>  (1) 
2-[[3-[(2-hydroxy-3,3-dimethyl-1-oxo-4-phosphonooxybutyl)amino]-1-oxopropyl]amino]-3-mercaptopropanoic acid

>  <PUBCHEM_IUPAC_NAME_MARKUP>  (1) 
2-[3-[(2-hydroxy-3,3-dimethyl-4-phosphonooxybutanoyl)amino]propanoylamino]-3-sulfanylpropanoic acid

>  <PUBCHEM_IUPAC_NAME>  (1) 
2-[3-[(2-hydroxy-3,3-dimethyl-4-phosphonooxybutanoyl)amino]propanoylamino]-3-sulfanylpropanoic acid

>  <PUBCHEM_IUPAC_SYSTEMATIC_NAME>  (1) 
2-[3-[(3,3-dimethyl-2-oxidanyl-4-phosphonooxy-butanoyl)amino]propanoylamino]-3-sulfanyl-propanoic acid

>  <PUBCHEM_IUPAC_TRADITIONAL_NAME>  (1) 
2-[3-[(2-hydroxy-3,3-dimethyl-4-phosphonooxy-butanoyl)amino]propanoylamino]-3-mercapto-propionic acid

>  <PUBCHEM_IUPAC_INCHI>  (1) 
InChI=1S/C12H23N2O9PS/c1-12(2,6-23-24(20,21)22)9(16)10(17)13-4-3-8(15)14-7(5-25)11(18)19/h7,9,16,25H,3-6H2,1-2H3,(H,13,17)(H,14,15)(H,18,19)(H2,20,21,22)

>  <PUBCHEM_IUPAC_INCHIKEY>  (1) 
XQYALQVLCNHCFT-UHFFFAOYSA-N

>  <PUBCHEM_XLOGP3_AA>  (1) 
-2.5

>  <PUBCHEM_EXACT_MASS>  (1) 
402.086188

>  <PUBCHEM_MOLECULAR_FORMULA>  (1) 
C12H23N2O9PS

>  <PUBCHEM_MOLECULAR_WEIGHT>  (1) 
402.36

>  <PUBCHEM_OPENEYE_CAN_SMILES>  (1) 
CC(C)(COP(=O)(O)O)C(C(=O)NCCC(=O)NC(CS)C(=O)O)O

>  <PUBCHEM_OPENEYE_ISO_SMILES>  (1) 
CC(C)(COP(=O)(O)O)C(C(=O)NCCC(=O)NC(CS)C(=O)O)O

>  <PUBCHEM_CACTVS_TPSA>  (1) 
184

>  <PUBCHEM_MONOISOTOPIC_WEIGHT>  (1) 
402.086188

>  <PUBCHEM_TOTAL_CHARGE>  (1) 
0

>  <PUBCHEM_HEAVY_ATOM_COUNT>  (1) 
25

>  <PUBCHEM_ATOM_DEF_STEREO_COUNT>  (1) 
0

>  <PUBCHEM_ATOM_UDEF_STEREO_COUNT>  (1) 
2

>  <PUBCHEM_BOND_DEF_STEREO_COUNT>  (1) 
0

>  <PUBCHEM_BOND_UDEF_STEREO_COUNT>  (1) 
0

>  <PUBCHEM_ISOTOPIC_ATOM_COUNT>  (1) 
0

>  <PUBCHEM_COMPONENT_COUNT>  (1) 
1

>  <PUBCHEM_CACTVS_TAUTO_COUNT>  (1) 
-1

>  <PUBCHEM_COORDINATE_TYPE>  (1) 
1
5
255

>  <PUBCHEM_BONDANNOTATIONS>  (1) 
23  24  3
15  4  3

$$$$
