138
     RDKit          2D

  8  7  0  0  0  0  0  0  0  0999 V2000
   -3.5085    0.8766    0.0000 O   0  0  0  0  0  0  0  0  0  0  0  0
   -2.4138   -1.4796    0.0000 O   0  0  0  0  0  0  0  0  0  0  0  0
    4.2551    0.1865    0.0000 N   0  0  0  0  0  0  0  0  0  0  0  0
    0.3069   -0.2155    0.0000 C   0  0  0  0  0  0  0  0  0  0  0  0
    1.6672    0.4165    0.0000 C   0  0  0  0  0  0  0  0  0  0  0  0
   -0.9207    0.6465    0.0000 C   0  0  0  0  0  0  0  0  0  0  0  0
    2.8948   -0.4455    0.0000 C   0  0  0  0  0  0  0  0  0  0  0  0
   -2.2810    0.0145    0.0000 C   0  0  0  0  0  0  0  0  0  0  0  0
  1  8  1  0
  2  8  2  0
  3  7  1  0
  4  5  1  0
  4  6  1  0
  5  7  1  0
  6  8  1  0
M  END
>  <PUBCHEM_COMPOUND_CID>  (1) 
138

>  <PUBCHEM_COMPOUND_CANONICALIZED>  (1) 
1

>  <PUBCHEM_CACTVS_COMPLEXITY>  (1) 
72.8

>  <PUBCHEM_CACTVS_HBOND_ACCEPTOR>  (1) 
3

>  <PUBCHEM_CACTVS_HBOND_DONOR>  (1) 
2

>  <PUBCHEM_CACTVS_ROTATABLE_BOND>  (1) 
4

>  <PUBCHEM_CACTVS_SUBSKEYS>  (1) 
AAADccBiMAAAAAAAAAAAAAAAAAAAAAAAAAAAAAAAAAAAAAAAAAAAHgAQCAAACADBgAQACABAAgAIAACQCAAAAAAAAAAAAIEAAAAAABIAgAAAQAAEEAAAAACYEQAAAAAAAAAAAAAAAAAAAAAAAAAAAAAAAA==

>  <PUBCHEM_IUPAC_OPENEYE_NAME>  (1) 
5-aminopentanoic acid

>  <PUBCHEM_IUPAC_CAS_NAME>  (1) 
5-aminopentanoic acid

>  <PUBCHEM_IUPAC_NAME_MARKUP>  (1) 
5-aminopentanoic acid

>  <PUBCHEM_IUPAC_NAME>  (1) 
5-aminopentanoic acid

>  <PUBCHEM_IUPAC_SYSTEMATIC_NAME>  (1) 
5-azanylpentanoic acid

>  <PUBCHEM_IUPAC_TRADITIONAL_NAME>  (1) 
5-aminovaleric acid

>  <PUBCHEM_IUPAC_INCHI>  (1) 
InChI=1S/C5H11NO2/c6-4-2-1-3-5(7)8/h1-4,6H2,(H,7,8)

>  <PUBCHEM_IUPAC_INCHIKEY>  (1) 
JJMDCOVWQOJGCB-UHFFFAOYSA-N

>  <PUBCHEM_XLOGP3>  (1) 
-2.6

>  <PUBCHEM_EXACT_MASS>  (1) 
117.078979

>  <PUBCHEM_MOLECULAR_FORMULA>  (1) 
C5H11NO2

>  <PUBCHEM_MOLECULAR_WEIGHT>  (1) 
117.15

>  <PUBCHEM_OPENEYE_CAN_SMILES>  (1) 
C(CCN)CC(=O)O

>  <PUBCHEM_OPENEYE_ISO_SMILES>  (1) 
C(CCN)CC(=O)O

>  <PUBCHEM_CACTVS_TPSA>  (1) 
63.3

>  <PUBCHEM_MONOISOTOPIC_WEIGHT>  (1) 
117.078979

>  <PUBCHEM_TOTAL_CHARGE>  (1) 
0

>  <PUBCHEM_HEAVY_ATOM_COUNT>  (1) 
8

>  <PUBCHEM_ATOM_DEF_STEREO_COUNT>  (1) 
0

>  <PUBCHEM_ATOM_UDEF_STEREO_COUNT>  (1) 
0

>  <PUBCHEM_BOND_DEF_STEREO_COUNT>  (1) 
0

>  <PUBCHEM_BOND_UDEF_STEREO_COUNT>  (1) 
0

>  <PUBCHEM_ISOTOPIC_ATOM_COUNT>  (1) 
0

>  <PUBCHEM_COMPONENT_COUNT>  (1) 
1

>  <PUBCHEM_CACTVS_TAUTO_COUNT>  (1) 
-1

>  <PUBCHEM_COORDINATE_TYPE>  (1) 
1
5
255

$$$$
