14
     RDKit          2D

 25 25  0  0  1  0  0  0  0  0999 V2000
    4.0932    4.6992    0.0000 O   0  0  0  0  0  0  0  0  0  0  0  0
   -1.1862    4.6064    0.0000 O   0  0  0  0  0  0  0  0  0  0  0  0
    4.9453   -0.8173    0.0000 O   0  0  0  0  0  0  0  0  0  0  0  0
   -8.6812   -1.6434    0.0000 O   0  0  0  0  0  0  0  0  0  0  0  0
   -6.5528   -3.1333    0.0000 O   0  0  0  0  0  0  0  0  0  0  0  0
    0.7369    2.7498    0.0000 C   0  0  0  0  0  0  0  0  0  0  0  0
    2.2366    2.7762    0.0000 C   0  0  0  0  0  0  0  0  0  0  0  0
    2.6750    4.2107    0.0000 C   0  0  0  0  0  0  0  0  0  0  0  0
   -0.1234    1.5210    0.0000 C   0  0  0  0  0  0  0  0  0  0  0  0
    1.4462    5.0709    0.0000 C   0  0  0  0  0  0  0  0  0  0  0  0
    0.2483    4.1680    0.0000 C   0  0  0  0  0  0  0  0  0  0  0  0
   -1.6177    1.6515    0.0000 C   0  0  0  0  0  0  0  0  0  0  0  0
    3.1395    1.5783    0.0000 C   0  0  0  0  0  0  0  0  0  0  0  0
   -2.4779    0.4227    0.0000 C   0  0  0  0  0  0  0  0  0  0  0  0
   -3.9722    0.5532    0.0000 C   0  0  0  0  0  0  0  0  0  0  0  0
    2.5536    0.1975    0.0000 C   0  0  0  0  0  0  0  0  0  0  0  0
   -4.8324   -0.6756    0.0000 C   0  0  0  0  0  0  0  0  0  0  0  0
    3.4565   -1.0003    0.0000 C   0  0  0  0  0  0  0  0  0  0  0  0
    2.8705   -2.3812    0.0000 C   0  0  0  0  0  0  0  0  0  0  0  0
   -6.3267   -0.5451    0.0000 C   0  0  0  0  0  0  0  0  0  0  0  0
    3.7734   -3.5790    0.0000 C   0  0  0  0  0  0  0  0  0  0  0  0
    3.1875   -4.9598    0.0000 C   0  0  0  0  0  0  0  0  0  0  0  0
    4.0904   -6.1577    0.0000 C   0  0  0  0  0  0  0  0  0  0  0  0
   -7.1869   -1.7739    0.0000 C   0  0  0  0  0  0  0  0  0  0  0  0
    3.5045   -7.5385    0.0000 C   0  0  0  0  0  0  0  0  0  0  0  0
  1  8  1  0
  2 11  2  0
  3 18  2  0
  4 24  1  0
  5 24  2  0
  6  7  1  0
  6  9  1  0
  6 11  1  0
  7  8  1  0
  7 13  1  0
  8 10  1  0
  9 12  1  0
 10 11  1  0
 12 14  1  0
 13 16  2  3
 14 15  1  0
 15 17  1  0
 16 18  1  0
 17 20  1  0
 18 19  1  0
 19 21  1  0
 20 24  1  0
 21 22  1  0
 22 23  1  0
 23 25  1  0
M  END
>  <PUBCHEM_COMPOUND_CID>  (1) 
14

>  <PUBCHEM_COMPOUND_CANONICALIZED>  (1) 
1

>  <PUBCHEM_CACTVS_COMPLEXITY>  (1) 
469

>  <PUBCHEM_CACTVS_HBOND_ACCEPTOR>  (1) 
5

>  <PUBCHEM_CACTVS_HBOND_DONOR>  (1) 
2

>  <PUBCHEM_CACTVS_ROTATABLE_BOND>  (1) 
13

>  <PUBCHEM_CACTVS_SUBSKEYS>  (1) 
AAADcfB4OAAAAAAAAAAAAAAAAAAAAYAAAAAAAAAAAAAAAAAAAAAAGgAACAAADRSggAICCAAAAgCIAKDSCAAAAAAgAAAICAEAAEgAEBYAAQAAQAAE4AAIAYOKyOCOgAAAAAAAAAAAAAAAAAAAAIAADAAAAA==

>  <PUBCHEM_IUPAC_OPENEYE_NAME>  (1) 
7-[3-hydroxy-5-oxo-2-(3-oxooct-1-enyl)cyclopentyl]heptanoic acid

>  <PUBCHEM_IUPAC_CAS_NAME>  (1) 
7-[3-hydroxy-5-oxo-2-(3-oxooct-1-enyl)cyclopentyl]heptanoic acid

>  <PUBCHEM_IUPAC_NAME_MARKUP>  (1) 
7-[3-hydroxy-5-oxo-2-(3-oxooct-1-enyl)cyclopentyl]heptanoic acid

>  <PUBCHEM_IUPAC_NAME>  (1) 
7-[3-hydroxy-5-oxo-2-(3-oxooct-1-enyl)cyclopentyl]heptanoic acid

>  <PUBCHEM_IUPAC_SYSTEMATIC_NAME>  (1) 
7-[3-oxidanyl-5-oxidanylidene-2-(3-oxidanylideneoct-1-enyl)cyclopentyl]heptanoic acid

>  <PUBCHEM_IUPAC_TRADITIONAL_NAME>  (1) 
7-[3-hydroxy-5-keto-2-(3-ketooct-1-enyl)cyclopentyl]enanthic acid

>  <PUBCHEM_IUPAC_INCHI>  (1) 
InChI=1S/C20H32O5/c1-2-3-6-9-15(21)12-13-17-16(18(22)14-19(17)23)10-7-4-5-8-11-20(24)25/h12-13,16-17,19,23H,2-11,14H2,1H3,(H,24,25)

>  <PUBCHEM_IUPAC_INCHIKEY>  (1) 
VXPBDCBTMSKCKZ-UHFFFAOYSA-N

>  <PUBCHEM_XLOGP3>  (1) 
3.1

>  <PUBCHEM_EXACT_MASS>  (1) 
352.224974

>  <PUBCHEM_MOLECULAR_FORMULA>  (1) 
C20H32O5

>  <PUBCHEM_MOLECULAR_WEIGHT>  (1) 
352.5

>  <PUBCHEM_OPENEYE_CAN_SMILES>  (1) 
CCCCCC(=O)C=CC1C(CC(=O)C1CCCCCCC(=O)O)O

>  <PUBCHEM_OPENEYE_ISO_SMILES>  (1) 
CCCCCC(=O)C=CC1C(CC(=O)C1CCCCCCC(=O)O)O

>  <PUBCHEM_CACTVS_TPSA>  (1) 
91.7

>  <PUBCHEM_MONOISOTOPIC_WEIGHT>  (1) 
352.224974

>  <PUBCHEM_TOTAL_CHARGE>  (1) 
0

>  <PUBCHEM_HEAVY_ATOM_COUNT>  (1) 
25

>  <PUBCHEM_ATOM_DEF_STEREO_COUNT>  (1) 
0

>  <PUBCHEM_ATOM_UDEF_STEREO_COUNT>  (1) 
3

>  <PUBCHEM_BOND_DEF_STEREO_COUNT>  (1) 
0

>  <PUBCHEM_BOND_UDEF_STEREO_COUNT>  (1) 
1

>  <PUBCHEM_ISOTOPIC_ATOM_COUNT>  (1) 
0

>  <PUBCHEM_COMPONENT_COUNT>  (1) 
1

>  <PUBCHEM_CACTVS_TAUTO_COUNT>  (1) 
-1

>  <PUBCHEM_COORDINATE_TYPE>  (1) 
1
5
255

>  <PUBCHEM_BONDANNOTATIONS>  (1) 
8  1  3
13  16  1
6  9  3
7  13  3

$$$$
