141
     RDKit          2D

 34 36  0  0  1  0  0  0  0  0999 V2000
   -2.1752   -2.9792    0.0000 P   0  0  0  0  0  0  0  0  0  0  0  0
   -4.5378   -1.8985    0.0000 P   0  0  0  0  0  0  0  0  0  0  0  0
    2.1985   -0.0405    0.0000 O   0  0  0  0  0  0  0  0  0  0  0  0
    2.1009   -3.9207    0.0000 O   0  0  0  0  0  0  0  0  0  0  0  0
    5.0955   -2.6236    0.0000 O   0  0  0  0  0  0  0  0  0  0  0  0
   -0.6819   -2.8376    0.0000 O   0  0  0  0  0  0  0  0  0  0  0  0
   -3.2899    0.8297    0.0000 O   0  0  0  0  0  0  0  0  0  0  0  0
   -5.4072   -0.6761    0.0000 O   0  0  0  0  0  0  0  0  0  0  0  0
   -3.6685   -3.1209    0.0000 O   0  0  0  0  0  0  0  0  0  0  0  0
   -7.1458    1.7688    0.0000 O   0  0  0  0  0  0  0  0  0  0  0  0
    6.5061   -1.3232    0.0000 O   0  0  0  0  0  0  0  0  0  0  0  0
   -5.8979    4.4969    0.0000 O   0  0  0  0  0  0  0  0  0  0  0  0
   -2.3169   -1.4859    0.0000 O   0  0  0  0  0  0  0  0  0  0  0  0
   -2.0336   -4.4725    0.0000 O   0  0  0  0  0  0  0  0  0  0  0  0
   -2.9113    4.7802    0.0000 O   0  0  0  0  0  0  0  0  0  0  0  0
   -5.7603   -2.7678    0.0000 O   0  0  0  0  0  0  0  0  0  0  0  0
    8.1618    3.6021    0.0000 O   0  0  0  0  0  0  0  0  0  0  0  0
   -3.3154   -1.0291    0.0000 O   0  0  0  0  0  0  0  0  0  0  0  0
    4.7873    0.6251    0.0000 N   0  0  0  0  0  0  0  0  0  0  0  0
    7.3339    1.1395    0.0000 N   0  0  0  0  0  0  0  0  0  0  0  0
    2.4277   -2.4567    0.0000 C   0  0  0  0  0  0  0  0  0  0  0  0
    3.8041   -1.8605    0.0000 C   0  0  0  0  0  0  0  0  0  0  0  0
    1.4353   -1.3318    0.0000 C   0  0  0  0  0  0  0  0  0  0  0  0
    3.6625   -0.3672    0.0000 C   0  0  0  0  0  0  0  0  0  0  0  0
   -0.0580   -1.4735    0.0000 C   0  0  0  0  0  0  0  0  0  0  0  0
    6.2091    0.1472    0.0000 C   0  0  0  0  0  0  0  0  0  0  0  0
    4.4903    2.0954    0.0000 C   0  0  0  0  0  0  0  0  0  0  0  0
   -5.6525    1.9104    0.0000 C   0  0  0  0  0  0  0  0  0  0  0  0
   -4.7832    0.6880    0.0000 C   0  0  0  0  0  0  0  0  0  0  0  0
   -5.0286    3.2745    0.0000 C   0  0  0  0  0  0  0  0  0  0  0  0
    5.6152    3.0878    0.0000 C   0  0  0  0  0  0  0  0  0  0  0  0
   -3.5353    3.4161    0.0000 C   0  0  0  0  0  0  0  0  0  0  0  0
   -2.6659    2.1937    0.0000 C   0  0  0  0  0  0  0  0  0  0  0  0
    7.0370    2.6098    0.0000 C   0  0  0  0  0  0  0  0  0  0  0  0
  1  6  1  0
  1  9  1  0
  1 13  1  0
  1 14  2  0
  2  8  1  0
  2  9  1  0
  2 16  1  0
  2 18  2  0
  3 23  1  0
  3 24  1  0
  4 21  1  0
  5 22  1  0
  6 25  1  0
  7 29  1  0
  7 33  1  0
  8 29  1  0
 10 28  1  0
 11 26  2  0
 12 30  1  0
 15 32  2  0
 17 34  2  0
 19 24  1  0
 19 26  1  0
 19 27  1  0
 20 26  1  0
 20 34  1  0
 21 22  1  0
 21 23  1  0
 22 24  1  0
 23 25  1  0
 27 31  2  0
 28 29  1  0
 28 30  1  0
 30 32  1  0
 31 34  1  0
 32 33  1  0
M  END
>  <PUBCHEM_COMPOUND_CID>  (1) 
141

>  <PUBCHEM_COMPOUND_CANONICALIZED>  (1) 
1

>  <PUBCHEM_CACTVS_COMPLEXITY>  (1) 
958

>  <PUBCHEM_CACTVS_HBOND_ACCEPTOR>  (1) 
16

>  <PUBCHEM_CACTVS_HBOND_DONOR>  (1) 
7

>  <PUBCHEM_CACTVS_ROTATABLE_BOND>  (1) 
8

>  <PUBCHEM_CACTVS_SUBSKEYS>  (1) 
AAADceBzPgMAAAAAAAAAAAAAAAAAASAAAAAkQAAAAAAAAAAAAAAAHgAQCCAACBTxgAcBCAPABxCIQKFWUIKAAAAAAgAIAAFIAECTEBYAgAQOQAAPNyIXAMDyMAIAAAAAAAAAAAAAAAAAAAAAAAAAAAAAAA==

>  <PUBCHEM_IUPAC_OPENEYE_NAME>  (1) 
(3,4-dihydroxy-5-oxo-tetrahydropyran-2-yl) [[5-(2,4-dioxopyrimidin-1-yl)-3,4-dihydroxy-tetrahydrofuran-2-yl]methoxy-hydroxy-phosphoryl] hydrogen phosphate

>  <PUBCHEM_IUPAC_CAS_NAME>  (1) 
(3,4-dihydroxy-5-oxo-2-oxanyl) [[5-(2,4-dioxo-1-pyrimidinyl)-3,4-dihydroxy-2-oxolanyl]methoxy-hydroxyphosphoryl] hydrogen phosphate

>  <PUBCHEM_IUPAC_NAME_MARKUP>  (1) 
(3,4-dihydroxy-5-oxooxan-2-yl) [[5-(2,4-dioxopyrimidin-1-yl)-3,4-dihydroxyoxolan-2-yl]methoxy-hydroxyphosphoryl] hydrogen phosphate

>  <PUBCHEM_IUPAC_NAME>  (1) 
(3,4-dihydroxy-5-oxooxan-2-yl) [[5-(2,4-dioxopyrimidin-1-yl)-3,4-dihydroxyoxolan-2-yl]methoxy-hydroxyphosphoryl] hydrogen phosphate

>  <PUBCHEM_IUPAC_SYSTEMATIC_NAME>  (1) 
[[5-[2,4-bis(oxidanylidene)pyrimidin-1-yl]-3,4-bis(oxidanyl)oxolan-2-yl]methoxy-oxidanyl-phosphoryl] [3,4-bis(oxidanyl)-5-oxidanylidene-oxan-2-yl] hydrogen phosphate

>  <PUBCHEM_IUPAC_TRADITIONAL_NAME>  (1) 
(3,4-dihydroxy-5-keto-tetrahydropyran-2-yl) [[5-(2,4-diketopyrimidin-1-yl)-3,4-dihydroxy-tetrahydrofuran-2-yl]methoxy-hydroxy-phosphoryl] hydrogen phosphate

>  <PUBCHEM_IUPAC_INCHI>  (1) 
InChI=1S/C14H20N2O16P2/c17-5-3-28-13(11(22)8(5)19)31-34(26,27)32-33(24,25)29-4-6-9(20)10(21)12(30-6)16-2-1-7(18)15-14(16)23/h1-2,6,8-13,19-22H,3-4H2,(H,24,25)(H,26,27)(H,15,18,23)

>  <PUBCHEM_IUPAC_INCHIKEY>  (1) 
URJZIQLTPCJVMW-UHFFFAOYSA-N

>  <PUBCHEM_XLOGP3_AA>  (1) 
-6.1

>  <PUBCHEM_EXACT_MASS>  (1) 
534.028807

>  <PUBCHEM_MOLECULAR_FORMULA>  (1) 
C14H20N2O16P2

>  <PUBCHEM_MOLECULAR_WEIGHT>  (1) 
534.26

>  <PUBCHEM_OPENEYE_CAN_SMILES>  (1) 
C1C(=O)C(C(C(O1)OP(=O)(O)OP(=O)(O)OCC2C(C(C(O2)N3C=CC(=O)NC3=O)O)O)O)O

>  <PUBCHEM_OPENEYE_ISO_SMILES>  (1) 
C1C(=O)C(C(C(O1)OP(=O)(O)OP(=O)(O)OCC2C(C(C(O2)N3C=CC(=O)NC3=O)O)O)O)O

>  <PUBCHEM_CACTVS_TPSA>  (1) 
268

>  <PUBCHEM_MONOISOTOPIC_WEIGHT>  (1) 
534.028807

>  <PUBCHEM_TOTAL_CHARGE>  (1) 
0

>  <PUBCHEM_HEAVY_ATOM_COUNT>  (1) 
34

>  <PUBCHEM_ATOM_DEF_STEREO_COUNT>  (1) 
0

>  <PUBCHEM_ATOM_UDEF_STEREO_COUNT>  (1) 
7

>  <PUBCHEM_BOND_DEF_STEREO_COUNT>  (1) 
0

>  <PUBCHEM_BOND_UDEF_STEREO_COUNT>  (1) 
0

>  <PUBCHEM_ISOTOPIC_ATOM_COUNT>  (1) 
0

>  <PUBCHEM_COMPONENT_COUNT>  (1) 
1

>  <PUBCHEM_CACTVS_TAUTO_COUNT>  (1) 
-1

>  <PUBCHEM_COORDINATE_TYPE>  (1) 
1
5
255

>  <PUBCHEM_BONDANNOTATIONS>  (1) 
28  10  3
30  12  3
24  19  3
19  26  8
19  27  8
20  26  8
20  34  8
23  25  3
27  31  8
31  34  8
21  4  3
22  5  3
29  8  3

$$$$
