145
     RDKit          2D

 13 12  0  0  1  0  0  0  0  0999 V2000
    0.6844    1.6990    0.0000 O   0  0  0  0  0  0  0  0  0  0  0  0
    1.7964   -2.1107    0.0000 O   0  0  0  0  0  0  0  0  0  0  0  0
    4.4655   -0.7410    0.0000 O   0  0  0  0  0  0  0  0  0  0  0  0
   -1.9105    1.8275    0.0000 O   0  0  0  0  0  0  0  0  0  0  0  0
    3.2793    1.5705    0.0000 O   0  0  0  0  0  0  0  0  0  0  0  0
   -4.5796    0.4578    0.0000 O   0  0  0  0  0  0  0  0  0  0  0  0
   -3.3934   -1.8537    0.0000 O   0  0  0  0  0  0  0  0  0  0  0  0
    0.6102    0.2008    0.0000 C   0  0  0  0  0  0  0  0  0  0  0  0
    1.8706   -0.6125    0.0000 C   0  0  0  0  0  0  0  0  0  0  0  0
   -0.7243   -0.4840    0.0000 C   0  0  0  0  0  0  0  0  0  0  0  0
   -1.9847    0.3293    0.0000 C   0  0  0  0  0  0  0  0  0  0  0  0
    3.2051    0.0723    0.0000 C   0  0  0  0  0  0  0  0  0  0  0  0
   -3.3192   -0.3555    0.0000 C   0  0  0  0  0  0  0  0  0  0  0  0
  1  8  1  0
  2  9  1  0
  3 12  1  0
  4 11  2  0
  5 12  2  0
  6 13  1  0
  7 13  2  0
  8  9  1  0
  8 10  1  0
  9 12  1  0
 10 11  1  0
 11 13  1  0
M  END
>  <PUBCHEM_COMPOUND_CID>  (1) 
145

>  <PUBCHEM_COMPOUND_CANONICALIZED>  (1) 
1

>  <PUBCHEM_CACTVS_COMPLEXITY>  (1) 
233

>  <PUBCHEM_CACTVS_HBOND_ACCEPTOR>  (1) 
7

>  <PUBCHEM_CACTVS_HBOND_DONOR>  (1) 
4

>  <PUBCHEM_CACTVS_ROTATABLE_BOND>  (1) 
5

>  <PUBCHEM_CACTVS_SUBSKEYS>  (1) 
AAADccBgOAAAAAAAAAAAAAAAAAAAAAAAAAAAAAAAAAAAAAAAAAAAGgAACAAACBSggAIACAAAAgAIAICQCAIAAAAAAAAAAAFAAAABEBYAAAAAQAAFIAABAAHKbgRgAAAAAAAAAAAAAAAAAAAAAAAAAAAAAA==

>  <PUBCHEM_IUPAC_OPENEYE_NAME>  (1) 
2,3-dihydroxy-5-oxo-hexanedioic acid

>  <PUBCHEM_IUPAC_CAS_NAME>  (1) 
2,3-dihydroxy-5-oxohexanedioic acid

>  <PUBCHEM_IUPAC_NAME_MARKUP>  (1) 
2,3-dihydroxy-5-oxohexanedioic acid

>  <PUBCHEM_IUPAC_NAME>  (1) 
2,3-dihydroxy-5-oxohexanedioic acid

>  <PUBCHEM_IUPAC_SYSTEMATIC_NAME>  (1) 
2,3-bis(oxidanyl)-5-oxidanylidene-hexanedioic acid

>  <PUBCHEM_IUPAC_TRADITIONAL_NAME>  (1) 
2,3-dihydroxy-5-keto-adipic acid

>  <PUBCHEM_IUPAC_INCHI>  (1) 
InChI=1S/C6H8O7/c7-2(4(9)6(12)13)1-3(8)5(10)11/h2,4,7,9H,1H2,(H,10,11)(H,12,13)

>  <PUBCHEM_IUPAC_INCHIKEY>  (1) 
QUURPCHWPQNNGL-UHFFFAOYSA-N

>  <PUBCHEM_XLOGP3_AA>  (1) 
-2.1

>  <PUBCHEM_EXACT_MASS>  (1) 
192.027003

>  <PUBCHEM_MOLECULAR_FORMULA>  (1) 
C6H8O7

>  <PUBCHEM_MOLECULAR_WEIGHT>  (1) 
192.12

>  <PUBCHEM_OPENEYE_CAN_SMILES>  (1) 
C(C(C(C(=O)O)O)O)C(=O)C(=O)O

>  <PUBCHEM_OPENEYE_ISO_SMILES>  (1) 
C(C(C(C(=O)O)O)O)C(=O)C(=O)O

>  <PUBCHEM_CACTVS_TPSA>  (1) 
132

>  <PUBCHEM_MONOISOTOPIC_WEIGHT>  (1) 
192.027003

>  <PUBCHEM_TOTAL_CHARGE>  (1) 
0

>  <PUBCHEM_HEAVY_ATOM_COUNT>  (1) 
13

>  <PUBCHEM_ATOM_DEF_STEREO_COUNT>  (1) 
0

>  <PUBCHEM_ATOM_UDEF_STEREO_COUNT>  (1) 
2

>  <PUBCHEM_BOND_DEF_STEREO_COUNT>  (1) 
0

>  <PUBCHEM_BOND_UDEF_STEREO_COUNT>  (1) 
0

>  <PUBCHEM_ISOTOPIC_ATOM_COUNT>  (1) 
0

>  <PUBCHEM_COMPONENT_COUNT>  (1) 
1

>  <PUBCHEM_CACTVS_TAUTO_COUNT>  (1) 
-1

>  <PUBCHEM_COORDINATE_TYPE>  (1) 
1
5
255

>  <PUBCHEM_BONDANNOTATIONS>  (1) 
8  1  3
9  2  3

$$$$
