158
     RDKit          2D

 25 25  0  0  1  0  0  0  0  0999 V2000
   -2.9732    3.5335    0.0000 O   0  0  0  0  0  0  0  0  0  0  0  0
    2.3028    3.7439    0.0000 O   0  0  0  0  0  0  0  0  0  0  0  0
   -3.5071   -2.0229    0.0000 O   0  0  0  0  0  0  0  0  0  0  0  0
   10.1443   -2.0652    0.0000 O   0  0  0  0  0  0  0  0  0  0  0  0
    8.1050   -3.6748    0.0000 O   0  0  0  0  0  0  0  0  0  0  0  0
   -1.0092    1.7202    0.0000 C   0  0  0  0  0  0  0  0  0  0  0  0
    0.4896    1.7800    0.0000 C   0  0  0  0  0  0  0  0  0  0  0  0
   -1.5293    3.1272    0.0000 C   0  0  0  0  0  0  0  0  0  0  0  0
   -0.3518    4.0565    0.0000 C   0  0  0  0  0  0  0  0  0  0  0  0
    0.8959    3.2239    0.0000 C   0  0  0  0  0  0  0  0  0  0  0  0
    1.4189    0.6026    0.0000 C   0  0  0  0  0  0  0  0  0  0  0  0
   -1.8419    0.4725    0.0000 C   0  0  0  0  0  0  0  0  0  0  0  0
   -3.3387    0.5697    0.0000 C   0  0  0  0  0  0  0  0  0  0  0  0
    2.9033    0.8187    0.0000 C   0  0  0  0  0  0  0  0  0  0  0  0
   -4.1713   -0.6780    0.0000 C   0  0  0  0  0  0  0  0  0  0  0  0
   -5.6682   -0.5808    0.0000 C   0  0  0  0  0  0  0  0  0  0  0  0
   -6.5008   -1.8285    0.0000 C   0  0  0  0  0  0  0  0  0  0  0  0
    3.8326   -0.3587    0.0000 C   0  0  0  0  0  0  0  0  0  0  0  0
   -7.9976   -1.7313    0.0000 C   0  0  0  0  0  0  0  0  0  0  0  0
    5.3170   -0.1426    0.0000 C   0  0  0  0  0  0  0  0  0  0  0  0
   -8.8302   -2.9790    0.0000 C   0  0  0  0  0  0  0  0  0  0  0  0
    6.2463   -1.3200    0.0000 C   0  0  0  0  0  0  0  0  0  0  0  0
    7.7306   -1.1039    0.0000 C   0  0  0  0  0  0  0  0  0  0  0  0
  -10.3271   -2.8818    0.0000 C   0  0  0  0  0  0  0  0  0  0  0  0
    8.6600   -2.2813    0.0000 C   0  0  0  0  0  0  0  0  0  0  0  0
  1  8  1  0
  2 10  2  0
  3 15  1  0
  4 25  1  0
  5 25  2  0
  6  7  1  0
  6  8  1  0
  6 12  1  0
  7 10  1  0
  7 11  1  0
  8  9  1  0
  9 10  1  0
 11 14  1  0
 12 13  2  3
 13 15  1  0
 14 18  2  3
 15 16  1  0
 16 17  1  0
 17 19  1  0
 18 20  1  0
 19 21  1  0
 20 22  1  0
 21 24  1  0
 22 23  1  0
 23 25  1  0
M  END
>  <PUBCHEM_COMPOUND_CID>  (1) 
158

>  <PUBCHEM_COMPOUND_CANONICALIZED>  (1) 
1

>  <PUBCHEM_CACTVS_COMPLEXITY>  (1) 
469

>  <PUBCHEM_CACTVS_HBOND_ACCEPTOR>  (1) 
5

>  <PUBCHEM_CACTVS_HBOND_DONOR>  (1) 
3

>  <PUBCHEM_CACTVS_ROTATABLE_BOND>  (1) 
12

>  <PUBCHEM_CACTVS_SUBSKEYS>  (1) 
AAADcfB4OAAAAAAAAAAAAAAAAAAAAYAAAAAAAAAAAAAAAAAAAAAAGgAACAAADRSggAICCAAAAgCIAKDSCAAAAAAgAAAICAEAAAgAFBYAAQAAUAAE4AAIEAOKyICOgAAAAAAAAAAAAAAAAAAAAIAADAAAAA==

>  <PUBCHEM_IUPAC_OPENEYE_NAME>  (1) 
7-[3-hydroxy-2-(3-hydroxyoct-1-enyl)-5-oxo-cyclopentyl]hept-5-enoic acid

>  <PUBCHEM_IUPAC_CAS_NAME>  (1) 
7-[3-hydroxy-2-(3-hydroxyoct-1-enyl)-5-oxocyclopentyl]-5-heptenoic acid

>  <PUBCHEM_IUPAC_NAME_MARKUP>  (1) 
7-[3-hydroxy-2-(3-hydroxyoct-1-enyl)-5-oxocyclopentyl]hept-5-enoic acid

>  <PUBCHEM_IUPAC_NAME>  (1) 
7-[3-hydroxy-2-(3-hydroxyoct-1-enyl)-5-oxocyclopentyl]hept-5-enoic acid

>  <PUBCHEM_IUPAC_SYSTEMATIC_NAME>  (1) 
7-[3-oxidanyl-5-oxidanylidene-2-(3-oxidanyloct-1-enyl)cyclopentyl]hept-5-enoic acid

>  <PUBCHEM_IUPAC_TRADITIONAL_NAME>  (1) 
7-[3-hydroxy-2-(3-hydroxyoct-1-enyl)-5-keto-cyclopentyl]hept-5-enoic acid

>  <PUBCHEM_IUPAC_INCHI>  (1) 
InChI=1S/C20H32O5/c1-2-3-6-9-15(21)12-13-17-16(18(22)14-19(17)23)10-7-4-5-8-11-20(24)25/h4,7,12-13,15-17,19,21,23H,2-3,5-6,8-11,14H2,1H3,(H,24,25)

>  <PUBCHEM_IUPAC_INCHIKEY>  (1) 
XEYBRNLFEZDVAW-UHFFFAOYSA-N

>  <PUBCHEM_XLOGP3>  (1) 
2.8

>  <PUBCHEM_EXACT_MASS>  (1) 
352.224974

>  <PUBCHEM_MOLECULAR_FORMULA>  (1) 
C20H32O5

>  <PUBCHEM_MOLECULAR_WEIGHT>  (1) 
352.5

>  <PUBCHEM_OPENEYE_CAN_SMILES>  (1) 
CCCCCC(C=CC1C(CC(=O)C1CC=CCCCC(=O)O)O)O

>  <PUBCHEM_OPENEYE_ISO_SMILES>  (1) 
CCCCCC(C=CC1C(CC(=O)C1CC=CCCCC(=O)O)O)O

>  <PUBCHEM_CACTVS_TPSA>  (1) 
94.8

>  <PUBCHEM_MONOISOTOPIC_WEIGHT>  (1) 
352.224974

>  <PUBCHEM_TOTAL_CHARGE>  (1) 
0

>  <PUBCHEM_HEAVY_ATOM_COUNT>  (1) 
25

>  <PUBCHEM_ATOM_DEF_STEREO_COUNT>  (1) 
0

>  <PUBCHEM_ATOM_UDEF_STEREO_COUNT>  (1) 
4

>  <PUBCHEM_BOND_DEF_STEREO_COUNT>  (1) 
0

>  <PUBCHEM_BOND_UDEF_STEREO_COUNT>  (1) 
2

>  <PUBCHEM_ISOTOPIC_ATOM_COUNT>  (1) 
0

>  <PUBCHEM_COMPONENT_COUNT>  (1) 
1

>  <PUBCHEM_CACTVS_TAUTO_COUNT>  (1) 
-1

>  <PUBCHEM_COORDINATE_TYPE>  (1) 
1
5
255

>  <PUBCHEM_BONDANNOTATIONS>  (1) 
8  1  3
12  13  1
14  18  1
15  3  3
6  12  3
7  11  3

$$$$
