16
     RDKit          2D

 16 16  0  0  0  0  0  0  0  0999 V2000
    4.8705    0.0000    0.0000 O   0  0  0  0  0  0  0  0  0  0  0  0
   -4.8705    0.0000    0.0000 O   0  0  0  0  0  0  0  0  0  0  0  0
    3.0367   -1.4624    0.0000 N   0  0  0  0  0  0  0  0  0  0  0  0
   -3.0367    1.4624    0.0000 N   0  0  0  0  0  0  0  0  0  0  0  0
    0.7500    3.2860    0.0000 C   0  0  0  0  0  0  0  0  0  0  0  0
   -0.7500   -3.2860    0.0000 C   0  0  0  0  0  0  0  0  0  0  0  0
   -0.7500    3.2860    0.0000 C   0  0  0  0  0  0  0  0  0  0  0  0
    0.7500   -3.2860    0.0000 C   0  0  0  0  0  0  0  0  0  0  0  0
    2.1015    2.6351    0.0000 C   0  0  0  0  0  0  0  0  0  0  0  0
   -2.1015   -2.6351    0.0000 C   0  0  0  0  0  0  0  0  0  0  0  0
    2.1015   -2.6351    0.0000 C   0  0  0  0  0  0  0  0  0  0  0  0
   -2.1015    2.6351    0.0000 C   0  0  0  0  0  0  0  0  0  0  0  0
    3.0367    1.4624    0.0000 C   0  0  0  0  0  0  0  0  0  0  0  0
   -3.0367   -1.4624    0.0000 C   0  0  0  0  0  0  0  0  0  0  0  0
    3.3705   -0.0000    0.0000 C   0  0  0  0  0  0  0  0  0  0  0  0
   -3.3705    0.0000    0.0000 C   0  0  0  0  0  0  0  0  0  0  0  0
  1 15  2  0
  2 16  2  0
  3 11  1  0
  3 15  1  0
  4 12  1  0
  4 16  1  0
  5  7  1  0
  5  9  1  0
  6  8  1  0
  6 10  1  0
  7 12  1  0
  8 11  1  0
  9 13  1  0
 10 14  1  0
 13 15  1  0
 14 16  1  0
M  END
>  <PUBCHEM_COMPOUND_CID>  (1) 
16

>  <PUBCHEM_COMPOUND_CANONICALIZED>  (1) 
1

>  <PUBCHEM_CACTVS_COMPLEXITY>  (1) 
205

>  <PUBCHEM_CACTVS_HBOND_ACCEPTOR>  (1) 
2

>  <PUBCHEM_CACTVS_HBOND_DONOR>  (1) 
2

>  <PUBCHEM_CACTVS_ROTATABLE_BOND>  (1) 
0

>  <PUBCHEM_CACTVS_SUBSKEYS>  (1) 
AAADceBzMAAAAAAAAAAAAAAAAAAAAAAAAAAAAAAAAAAAAAAAAAAAHgAQAAAACADBgAQAAALAAAAIAAEQEAAAAAAAAAAAAIEIAAAAABIAgAAEAAAAFgCAAAEYCAAAAAAAAAAAAAAAAAAAAAAAAAAAAAAAAA==

>  <PUBCHEM_IUPAC_OPENEYE_NAME>  (1) 
1,8-diazacyclotetradecane-2,9-dione

>  <PUBCHEM_IUPAC_CAS_NAME>  (1) 
1,8-diazacyclotetradecane-2,9-dione

>  <PUBCHEM_IUPAC_NAME_MARKUP>  (1) 
1,8-diazacyclotetradecane-2,9-dione

>  <PUBCHEM_IUPAC_NAME>  (1) 
1,8-diazacyclotetradecane-2,9-dione

>  <PUBCHEM_IUPAC_SYSTEMATIC_NAME>  (1) 
1,8-diazacyclotetradecane-2,9-dione

>  <PUBCHEM_IUPAC_TRADITIONAL_NAME>  (1) 
1,8-diazacyclotetradecane-2,9-quinone

>  <PUBCHEM_IUPAC_INCHI>  (1) 
InChI=1S/C12H22N2O2/c15-11-7-3-1-5-9-13-12(16)8-4-2-6-10-14-11/h1-10H2,(H,13,16)(H,14,15)

>  <PUBCHEM_IUPAC_INCHIKEY>  (1) 
HERSSAVMHCMYSQ-UHFFFAOYSA-N

>  <PUBCHEM_XLOGP3_AA>  (1) 
0.6

>  <PUBCHEM_EXACT_MASS>  (1) 
226.168128

>  <PUBCHEM_MOLECULAR_FORMULA>  (1) 
C12H22N2O2

>  <PUBCHEM_MOLECULAR_WEIGHT>  (1) 
226.32

>  <PUBCHEM_OPENEYE_CAN_SMILES>  (1) 
C1CCC(=O)NCCCCCC(=O)NCC1

>  <PUBCHEM_OPENEYE_ISO_SMILES>  (1) 
C1CCC(=O)NCCCCCC(=O)NCC1

>  <PUBCHEM_CACTVS_TPSA>  (1) 
58.2

>  <PUBCHEM_MONOISOTOPIC_WEIGHT>  (1) 
226.168128

>  <PUBCHEM_TOTAL_CHARGE>  (1) 
0

>  <PUBCHEM_HEAVY_ATOM_COUNT>  (1) 
16

>  <PUBCHEM_ATOM_DEF_STEREO_COUNT>  (1) 
0

>  <PUBCHEM_ATOM_UDEF_STEREO_COUNT>  (1) 
0

>  <PUBCHEM_BOND_DEF_STEREO_COUNT>  (1) 
0

>  <PUBCHEM_BOND_UDEF_STEREO_COUNT>  (1) 
0

>  <PUBCHEM_ISOTOPIC_ATOM_COUNT>  (1) 
0

>  <PUBCHEM_COMPONENT_COUNT>  (1) 
1

>  <PUBCHEM_CACTVS_TAUTO_COUNT>  (1) 
-1

>  <PUBCHEM_COORDINATE_TYPE>  (1) 
1
5
255

$$$$
