163
     RDKit          2D

 58 60  0  0  1  0  0  0  0  0999 V2000
  -12.8552    0.1163    0.0000 S   0  0  0  0  0  0  0  0  0  0  0  0
    5.5619   -1.7558    0.0000 P   0  0  0  0  0  0  0  0  0  0  0  0
    5.3046    3.2741    0.0000 P   0  0  0  0  0  0  0  0  0  0  0  0
    2.7067    3.2516    0.0000 P   0  0  0  0  0  0  0  0  0  0  0  0
    9.2936    0.9188    0.0000 O   0  0  0  0  0  0  0  0  0  0  0  0
    6.9924   -2.2069    0.0000 O   0  0  0  0  0  0  0  0  0  0  0  0
   10.1903   -2.8577    0.0000 O   0  0  0  0  0  0  0  0  0  0  0  0
    6.6101    2.5354    0.0000 O   0  0  0  0  0  0  0  0  0  0  0  0
    6.0130   -0.3252    0.0000 O   0  0  0  0  0  0  0  0  0  0  0  0
    4.1313   -1.3047    0.0000 O   0  0  0  0  0  0  0  0  0  0  0  0
    3.9991    4.0128    0.0000 O   0  0  0  0  0  0  0  0  0  0  0  0
    5.1108   -3.1864    0.0000 O   0  0  0  0  0  0  0  0  0  0  0  0
    1.4142    2.4903    0.0000 O   0  0  0  0  0  0  0  0  0  0  0  0
    6.0433    4.5796    0.0000 O   0  0  0  0  0  0  0  0  0  0  0  0
    4.5660    1.9686    0.0000 O   0  0  0  0  0  0  0  0  0  0  0  0
   -1.1447   -2.0321    0.0000 O   0  0  0  0  0  0  0  0  0  0  0  0
    3.4679    1.9591    0.0000 O   0  0  0  0  0  0  0  0  0  0  0  0
    1.9454    4.5440    0.0000 O   0  0  0  0  0  0  0  0  0  0  0  0
   -2.4763    1.7065    0.0000 O   0  0  0  0  0  0  0  0  0  0  0  0
   -7.6722    1.6614    0.0000 O   0  0  0  0  0  0  0  0  0  0  0  0
  -14.1346   -2.1449    0.0000 O   0  0  0  0  0  0  0  0  0  0  0  0
  -23.2471    0.0261    0.0000 O   0  0  0  0  0  0  0  0  0  0  0  0
  -21.9285   -2.2125    0.0000 O   0  0  0  0  0  0  0  0  0  0  0  0
   11.7973   -0.0175    0.0000 N   0  0  0  0  0  0  0  0  0  0  0  0
   14.0059    0.9889    0.0000 N   0  0  0  0  0  0  0  0  0  0  0  0
   12.6668   -2.6165    0.0000 N   0  0  0  0  0  0  0  0  0  0  0  0
   15.2529   -2.8656    0.0000 N   0  0  0  0  0  0  0  0  0  0  0  0
   16.7618   -0.7506    0.0000 N   0  0  0  0  0  0  0  0  0  0  0  0
   -3.7557   -0.5547    0.0000 N   0  0  0  0  0  0  0  0  0  0  0  0
   -8.9517   -0.5998    0.0000 N   0  0  0  0  0  0  0  0  0  0  0  0
    8.0984   -1.1936    0.0000 C   0  0  0  0  0  0  0  0  0  0  0  0
    9.5683   -1.4927    0.0000 C   0  0  0  0  0  0  0  0  0  0  0  0
    7.9287    0.2968    0.0000 C   0  0  0  0  0  0  0  0  0  0  0  0
   10.3070   -0.1872    0.0000 C   0  0  0  0  0  0  0  0  0  0  0  0
    6.6232    1.0355    0.0000 C   0  0  0  0  0  0  0  0  0  0  0  0
   12.8107   -1.1234    0.0000 C   0  0  0  0  0  0  0  0  0  0  0  0
   12.5360    1.2880    0.0000 C   0  0  0  0  0  0  0  0  0  0  0  0
   14.1756   -0.5014    0.0000 C   0  0  0  0  0  0  0  0  0  0  0  0
    0.1347    0.2291    0.0000 C   0  0  0  0  0  0  0  0  0  0  0  0
   -1.1577   -0.5321    0.0000 C   0  0  0  0  0  0  0  0  0  0  0  0
   15.3968   -1.3726    0.0000 C   0  0  0  0  0  0  0  0  0  0  0  0
    1.4272    0.9904    0.0000 C   0  0  0  0  0  0  0  0  0  0  0  0
   -0.6265    1.5216    0.0000 C   0  0  0  0  0  0  0  0  0  0  0  0
    0.8960   -1.0634    0.0000 C   0  0  0  0  0  0  0  0  0  0  0  0
   13.8880   -3.4876    0.0000 C   0  0  0  0  0  0  0  0  0  0  0  0
   -2.4632    0.2066    0.0000 C   0  0  0  0  0  0  0  0  0  0  0  0
   -5.0612    0.1840    0.0000 C   0  0  0  0  0  0  0  0  0  0  0  0
   -6.3537   -0.5772    0.0000 C   0  0  0  0  0  0  0  0  0  0  0  0
   -7.6592    0.1614    0.0000 C   0  0  0  0  0  0  0  0  0  0  0  0
  -18.0511    0.0712    0.0000 C   0  0  0  0  0  0  0  0  0  0  0  0
  -16.7456   -0.6675    0.0000 C   0  0  0  0  0  0  0  0  0  0  0  0
  -10.2572    0.1389    0.0000 C   0  0  0  0  0  0  0  0  0  0  0  0
  -19.3436   -0.6900    0.0000 C   0  0  0  0  0  0  0  0  0  0  0  0
  -15.4531    0.0938    0.0000 C   0  0  0  0  0  0  0  0  0  0  0  0
  -11.5497   -0.6224    0.0000 C   0  0  0  0  0  0  0  0  0  0  0  0
  -20.6491    0.0487    0.0000 C   0  0  0  0  0  0  0  0  0  0  0  0
  -14.1476   -0.6449    0.0000 C   0  0  0  0  0  0  0  0  0  0  0  0
  -21.9416   -0.7126    0.0000 C   0  0  0  0  0  0  0  0  0  0  0  0
  1 55  1  0
  1 57  1  0
  2  6  1  0
  2  9  1  0
  2 10  1  0
  2 12  2  0
  3  8  1  0
  3 11  1  0
  3 14  1  0
  3 15  2  0
  4 11  1  0
  4 13  1  0
  4 17  1  0
  4 18  2  0
  5 33  1  0
  5 34  1  0
  6 31  1  0
  7 32  1  0
  8 35  1  0
 13 42  1  0
 16 40  1  0
 19 46  2  0
 20 49  2  0
 21 57  2  0
 22 58  1  0
 23 58  2  0
 24 34  1  0
 24 36  1  0
 24 37  1  0
 25 37  2  0
 25 38  1  0
 26 36  1  0
 26 45  2  0
 27 41  2  0
 27 45  1  0
 28 41  1  0
 29 46  1  0
 29 47  1  0
 30 49  1  0
 30 52  1  0
 31 32  1  0
 31 33  1  0
 32 34  1  0
 33 35  1  0
 36 38  2  0
 38 41  1  0
 39 40  1  0
 39 42  1  0
 39 43  1  0
 39 44  1  0
 40 46  1  0
 47 48  1  0
 48 49  1  0
 50 51  1  0
 50 53  1  0
 51 54  1  0
 52 55  1  0
 53 56  1  0
 54 57  1  0
 56 58  1  0
M  END
>  <PUBCHEM_COMPOUND_CID>  (1) 
163

>  <PUBCHEM_COMPOUND_CANONICALIZED>  (1) 
1

>  <PUBCHEM_CACTVS_COMPLEXITY>  (1) 
1560

>  <PUBCHEM_CACTVS_HBOND_ACCEPTOR>  (1) 
24

>  <PUBCHEM_CACTVS_HBOND_DONOR>  (1) 
10

>  <PUBCHEM_CACTVS_ROTATABLE_BOND>  (1) 
26

>  <PUBCHEM_CACTVS_SUBSKEYS>  (1) 
AAADcfB7vgNAAAAAAAAAAAAAAAAAAWJAAAAsAAAAAAAAAFgB+AAAHgQQCCAADhzl1waH+L/MFxioQQfxfIKAgC0RELABUKFoVBCDWBpgyEAeRAgPFgLzACH6+CKJAAAAAAAAAAAAAAAAAAAAAAAAAAAAAA==

>  <PUBCHEM_IUPAC_OPENEYE_NAME>  (1) 
7-[2-[3-[[4-[[[5-(6-aminopurin-9-yl)-4-hydroxy-3-phosphonooxy-tetrahydrofuran-2-yl]methoxy-hydroxy-phosphoryl]oxy-hydroxy-phosphoryl]oxy-2-hydroxy-3,3-dimethyl-butanoyl]amino]propanoylamino]ethylsulfanyl]-7-oxo-heptanoic acid

>  <PUBCHEM_IUPAC_CAS_NAME>  (1) 
7-[2-[[3-[[4-[[[5-(6-aminopurin-9-yl)-4-hydroxy-3-phosphonooxy-2-oxolanyl]methoxy-hydroxyphosphoryl]oxy-hydroxyphosphoryl]oxy-2-hydroxy-3,3-dimethyl-1-oxobutyl]amino]-1-oxopropyl]amino]ethylthio]-7-oxoheptanoic acid

>  <PUBCHEM_IUPAC_NAME_MARKUP>  (1) 
7-[2-[3-[[4-[[[5-(6-aminopurin-9-yl)-4-hydroxy-3-phosphonooxyoxolan-2-yl]methoxy-hydroxyphosphoryl]oxy-hydroxyphosphoryl]oxy-2-hydroxy-3,3-dimethylbutanoyl]amino]propanoylamino]ethylsulfanyl]-7-oxoheptanoic acid

>  <PUBCHEM_IUPAC_NAME>  (1) 
7-[2-[3-[[4-[[[5-(6-aminopurin-9-yl)-4-hydroxy-3-phosphonooxyoxolan-2-yl]methoxy-hydroxyphosphoryl]oxy-hydroxyphosphoryl]oxy-2-hydroxy-3,3-dimethylbutanoyl]amino]propanoylamino]ethylsulfanyl]-7-oxoheptanoic acid

>  <PUBCHEM_IUPAC_SYSTEMATIC_NAME>  (1) 
7-[2-[3-[[4-[[[5-(6-aminopurin-9-yl)-4-oxidanyl-3-phosphonooxy-oxolan-2-yl]methoxy-oxidanyl-phosphoryl]oxy-oxidanyl-phosphoryl]oxy-3,3-dimethyl-2-oxidanyl-butanoyl]amino]propanoylamino]ethylsulfanyl]-7-oxidanylidene-heptanoic acid

>  <PUBCHEM_IUPAC_TRADITIONAL_NAME>  (1) 
7-[2-[3-[[4-[[(5-adenin-9-yl-4-hydroxy-3-phosphonooxy-tetrahydrofuran-2-yl)methoxy-hydroxy-phosphoryl]oxy-hydroxy-phosphoryl]oxy-2-hydroxy-3,3-dimethyl-butanoyl]amino]propanoylamino]ethylthio]-7-keto-enanthic acid

>  <PUBCHEM_IUPAC_INCHI>  (1) 
InChI=1S/C28H46N7O19P3S/c1-28(2,23(41)26(42)31-9-8-17(36)30-10-11-58-19(39)7-5-3-4-6-18(37)38)13-51-57(48,49)54-56(46,47)50-12-16-22(53-55(43,44)45)21(40)27(52-16)35-15-34-20-24(29)32-14-33-25(20)35/h14-16,21-23,27,40-41H,3-13H2,1-2H3,(H,30,36)(H,31,42)(H,37,38)(H,46,47)(H,48,49)(H2,29,32,33)(H2,43,44,45)

>  <PUBCHEM_IUPAC_INCHIKEY>  (1) 
LYCRXMTYUZDUGA-UHFFFAOYSA-N

>  <PUBCHEM_XLOGP3_AA>  (1) 
-5

>  <PUBCHEM_EXACT_MASS>  (1) 
909.178204

>  <PUBCHEM_MOLECULAR_FORMULA>  (1) 
C28H46N7O19P3S

>  <PUBCHEM_MOLECULAR_WEIGHT>  (1) 
909.7

>  <PUBCHEM_OPENEYE_CAN_SMILES>  (1) 
CC(C)(COP(=O)(O)OP(=O)(O)OCC1C(C(C(O1)N2C=NC3=C(N=CN=C32)N)O)OP(=O)(O)O)C(C(=O)NCCC(=O)NCCSC(=O)CCCCCC(=O)O)O

>  <PUBCHEM_OPENEYE_ISO_SMILES>  (1) 
CC(C)(COP(=O)(O)OP(=O)(O)OCC1C(C(C(O1)N2C=NC3=C(N=CN=C32)N)O)OP(=O)(O)O)C(C(=O)NCCC(=O)NCCSC(=O)CCCCCC(=O)O)O

>  <PUBCHEM_CACTVS_TPSA>  (1) 
426

>  <PUBCHEM_MONOISOTOPIC_WEIGHT>  (1) 
909.178204

>  <PUBCHEM_TOTAL_CHARGE>  (1) 
0

>  <PUBCHEM_HEAVY_ATOM_COUNT>  (1) 
58

>  <PUBCHEM_ATOM_DEF_STEREO_COUNT>  (1) 
0

>  <PUBCHEM_ATOM_UDEF_STEREO_COUNT>  (1) 
5

>  <PUBCHEM_BOND_DEF_STEREO_COUNT>  (1) 
0

>  <PUBCHEM_BOND_UDEF_STEREO_COUNT>  (1) 
0

>  <PUBCHEM_ISOTOPIC_ATOM_COUNT>  (1) 
0

>  <PUBCHEM_COMPONENT_COUNT>  (1) 
1

>  <PUBCHEM_CACTVS_TAUTO_COUNT>  (1) 
-1

>  <PUBCHEM_COORDINATE_TYPE>  (1) 
1
5
255

>  <PUBCHEM_BONDANNOTATIONS>  (1) 
40  16  3
34  24  3
24  36  8
24  37  8
25  37  8
25  38  8
26  36  8
26  45  8
27  41  8
27  45  8
33  35  3
36  38  8
38  41  8
31  6  3
32  7  3

$$$$
