165
     RDKit          2D

 12 11  0  0  1  0  0  0  0  0999 V2000
   -1.8587    1.4784    0.0000 O   0  0  0  0  0  0  0  0  0  0  0  0
    4.7982   -0.2346    0.0000 O   0  0  0  0  0  0  0  0  0  0  0  0
    3.3201    1.9020    0.0000 O   0  0  0  0  0  0  0  0  0  0  0  0
    2.3311   -1.9414    0.0000 N   0  0  0  0  0  0  0  0  0  0  0  0
   -4.3259   -0.2284    0.0000 N   0  0  0  0  0  0  0  0  0  0  0  0
   -5.6818    0.4132    0.0000 N   0  0  0  0  0  0  0  0  0  0  0  0
    0.8530    0.1952    0.0000 C   0  0  0  0  0  0  0  0  0  0  0  0
    2.2088   -0.4464    0.0000 C   0  0  0  0  0  0  0  0  0  0  0  0
   -0.3806   -0.6582    0.0000 C   0  0  0  0  0  0  0  0  0  0  0  0
   -1.7365   -0.0166    0.0000 C   0  0  0  0  0  0  0  0  0  0  0  0
    3.4424    0.4070    0.0000 C   0  0  0  0  0  0  0  0  0  0  0  0
   -2.9701   -0.8700    0.0000 C   0  0  0  0  0  0  0  0  0  0  0  0
  1 10  1  0
  2 11  1  0
  3 11  2  0
  4  8  1  0
  5  6  3  0
  5 12  1  0
  7  8  1  0
  7  9  1  0
  8 11  1  0
  9 10  1  0
 10 12  2  3
M  CHG  1   5   1
M  END
>  <PUBCHEM_COMPOUND_CID>  (1) 
165

>  <PUBCHEM_COMPOUND_CANONICALIZED>  (1) 
1

>  <PUBCHEM_CACTVS_COMPLEXITY>  (1) 
240

>  <PUBCHEM_CACTVS_HBOND_ACCEPTOR>  (1) 
5

>  <PUBCHEM_CACTVS_HBOND_DONOR>  (1) 
3

>  <PUBCHEM_CACTVS_ROTATABLE_BOND>  (1) 
4

>  <PUBCHEM_CACTVS_SUBSKEYS>  (1) 
AAADccBjMAAAAAAAAAAAAAAAAAAAAAAAAAAAAAAAAAAAAAAAAAAAHgAYCAAACCzBgAQACABAAgCIAADWSAAAAAAgAAAAAIGAAAgCABIAgQAAQAAEkAAAAACoJAAAAAAAAAAAAAAAAAAAAAAAAAAAAAAAAA==

>  <PUBCHEM_IUPAC_OPENEYE_NAME>  (1) 
5-amino-2,6-dihydroxy-6-oxo-hex-1-ene-1-diazonium

>  <PUBCHEM_IUPAC_CAS_NAME>  (1) 
5-amino-2,6-dihydroxy-6-oxo-1-hexene-1-diazonium

>  <PUBCHEM_IUPAC_NAME_MARKUP>  (1) 
5-amino-2,6-dihydroxy-6-oxohex-1-ene-1-diazonium

>  <PUBCHEM_IUPAC_NAME>  (1) 
5-amino-2,6-dihydroxy-6-oxohex-1-ene-1-diazonium

>  <PUBCHEM_IUPAC_SYSTEMATIC_NAME>  (1) 
5-azanyl-2,6-bis(oxidanyl)-6-oxidanylidene-hex-1-ene-1-diazonium

>  <PUBCHEM_IUPAC_TRADITIONAL_NAME>  (1) 
5-amino-2,6-dihydroxy-6-keto-hex-1-ene-1-diazonium

>  <PUBCHEM_IUPAC_INCHI>  (1) 
InChI=1S/C6H9N3O3/c7-5(6(11)12)2-1-4(10)3-9-8/h3,5H,1-2,7H2,(H-,10,11,12)/p+1

>  <PUBCHEM_IUPAC_INCHIKEY>  (1) 
MKZFABOMIIHLIT-UHFFFAOYSA-O

>  <PUBCHEM_XLOGP3_AA>  (1) 
-2.2

>  <PUBCHEM_EXACT_MASS>  (1) 
172.072216

>  <PUBCHEM_MOLECULAR_FORMULA>  (1) 
C6H10N3O3+

>  <PUBCHEM_MOLECULAR_WEIGHT>  (1) 
172.16

>  <PUBCHEM_OPENEYE_CAN_SMILES>  (1) 
C(CC(=C[N+]#N)O)C(C(=O)O)N

>  <PUBCHEM_OPENEYE_ISO_SMILES>  (1) 
C(CC(=C[N+]#N)O)C(C(=O)O)N

>  <PUBCHEM_CACTVS_TPSA>  (1) 
112

>  <PUBCHEM_MONOISOTOPIC_WEIGHT>  (1) 
172.072216

>  <PUBCHEM_TOTAL_CHARGE>  (1) 
1

>  <PUBCHEM_HEAVY_ATOM_COUNT>  (1) 
12

>  <PUBCHEM_ATOM_DEF_STEREO_COUNT>  (1) 
0

>  <PUBCHEM_ATOM_UDEF_STEREO_COUNT>  (1) 
1

>  <PUBCHEM_BOND_DEF_STEREO_COUNT>  (1) 
0

>  <PUBCHEM_BOND_UDEF_STEREO_COUNT>  (1) 
1

>  <PUBCHEM_ISOTOPIC_ATOM_COUNT>  (1) 
0

>  <PUBCHEM_COMPONENT_COUNT>  (1) 
1

>  <PUBCHEM_CACTVS_TAUTO_COUNT>  (1) 
-1

>  <PUBCHEM_COORDINATE_TYPE>  (1) 
1
5
255

>  <PUBCHEM_BONDANNOTATIONS>  (1) 
10  12  1
8  4  3

$$$$
