169
     RDKit          2D

 24 23  0  0  1  0  0  0  0  0999 V2000
    5.8908    1.6601    0.0000 O   0  0  0  0  0  0  0  0  0  0  0  0
   -3.2968   -1.8525    0.0000 O   0  0  0  0  0  0  0  0  0  0  0  0
   12.3253   -0.7579    0.0000 O   0  0  0  0  0  0  0  0  0  0  0  0
   11.0852    1.5251    0.0000 O   0  0  0  0  0  0  0  0  0  0  0  0
   -9.7314    0.5654    0.0000 C   0  0  0  0  0  0  0  0  0  0  0  0
  -11.0495   -0.1506    0.0000 C   0  0  0  0  0  0  0  0  0  0  0  0
   -8.4523   -0.2180    0.0000 C   0  0  0  0  0  0  0  0  0  0  0  0
    7.1309   -0.6229    0.0000 C   0  0  0  0  0  0  0  0  0  0  0  0
  -12.3286    0.6329    0.0000 C   0  0  0  0  0  0  0  0  0  0  0  0
    8.4490    0.0931    0.0000 C   0  0  0  0  0  0  0  0  0  0  0  0
    5.8518    0.1606    0.0000 C   0  0  0  0  0  0  0  0  0  0  0  0
   -7.1342    0.4980    0.0000 C   0  0  0  0  0  0  0  0  0  0  0  0
    9.7281   -0.6904    0.0000 C   0  0  0  0  0  0  0  0  0  0  0  0
   -4.5370    0.4305    0.0000 C   0  0  0  0  0  0  0  0  0  0  0  0
  -13.6467   -0.0831    0.0000 C   0  0  0  0  0  0  0  0  0  0  0  0
   -5.8551   -0.2855    0.0000 C   0  0  0  0  0  0  0  0  0  0  0  0
   -3.2579   -0.3530    0.0000 C   0  0  0  0  0  0  0  0  0  0  0  0
    4.5337   -0.5554    0.0000 C   0  0  0  0  0  0  0  0  0  0  0  0
   -1.9398    0.3630    0.0000 C   0  0  0  0  0  0  0  0  0  0  0  0
   11.0462    0.0256    0.0000 C   0  0  0  0  0  0  0  0  0  0  0  0
    3.2546    0.2280    0.0000 C   0  0  0  0  0  0  0  0  0  0  0  0
   -0.6607   -0.4205    0.0000 C   0  0  0  0  0  0  0  0  0  0  0  0
    1.9365   -0.4880    0.0000 C   0  0  0  0  0  0  0  0  0  0  0  0
    0.6574    0.2955    0.0000 C   0  0  0  0  0  0  0  0  0  0  0  0
  1 11  1  0
  2 17  1  0
  3 20  1  0
  4 20  2  0
  5  6  1  0
  5  7  1  0
  6  9  1  0
  7 12  1  0
  8 10  1  0
  8 11  1  0
  9 15  1  0
 10 13  1  0
 11 18  1  0
 12 16  2  3
 13 20  1  0
 14 16  1  0
 14 17  1  0
 17 19  1  0
 18 21  2  3
 19 22  2  3
 21 23  1  0
 22 24  1  0
 23 24  2  3
M  END
>  <PUBCHEM_COMPOUND_CID>  (1) 
169

>  <PUBCHEM_COMPOUND_CANONICALIZED>  (1) 
1

>  <PUBCHEM_CACTVS_COMPLEXITY>  (1) 
421

>  <PUBCHEM_CACTVS_HBOND_ACCEPTOR>  (1) 
4

>  <PUBCHEM_CACTVS_HBOND_DONOR>  (1) 
3

>  <PUBCHEM_CACTVS_ROTATABLE_BOND>  (1) 
14

>  <PUBCHEM_CACTVS_SUBSKEYS>  (1) 
AAADcfB4OAAAAAAAAAAAAAAAAAAAAAAAAAAAAAAAAAAAAAAAAAAAGgAACAAACBSggAICCAAAAgCIACDSCAAAAAAgAAAICAEAAAgIFBIAAQAAUAAEwAAIkAOIbARAAAAAAAAAAAAAAAAAAAAAAAAAAAAAAA==

>  <PUBCHEM_IUPAC_OPENEYE_NAME>  (1) 
5,12-dihydroxyicosa-6,8,10,14-tetraenoic acid

>  <PUBCHEM_IUPAC_CAS_NAME>  (1) 
5,12-dihydroxyeicosa-6,8,10,14-tetraenoic acid

>  <PUBCHEM_IUPAC_NAME_MARKUP>  (1) 
5,12-dihydroxyicosa-6,8,10,14-tetraenoic acid

>  <PUBCHEM_IUPAC_NAME>  (1) 
5,12-dihydroxyicosa-6,8,10,14-tetraenoic acid

>  <PUBCHEM_IUPAC_SYSTEMATIC_NAME>  (1) 
5,12-bis(oxidanyl)icosa-6,8,10,14-tetraenoic acid

>  <PUBCHEM_IUPAC_TRADITIONAL_NAME>  (1) 
5,12-dihydroxyeicosa-6,8,10,14-tetraenoic acid

>  <PUBCHEM_IUPAC_INCHI>  (1) 
InChI=1S/C20H32O4/c1-2-3-4-5-6-9-13-18(21)14-10-7-8-11-15-19(22)16-12-17-20(23)24/h6-11,14-15,18-19,21-22H,2-5,12-13,16-17H2,1H3,(H,23,24)

>  <PUBCHEM_IUPAC_INCHIKEY>  (1) 
VNYSSYRCGWBHLG-UHFFFAOYSA-N

>  <PUBCHEM_XLOGP3_AA>  (1) 
4.1

>  <PUBCHEM_EXACT_MASS>  (1) 
336.23006

>  <PUBCHEM_MOLECULAR_FORMULA>  (1) 
C20H32O4

>  <PUBCHEM_MOLECULAR_WEIGHT>  (1) 
336.5

>  <PUBCHEM_OPENEYE_CAN_SMILES>  (1) 
CCCCCC=CCC(C=CC=CC=CC(CCCC(=O)O)O)O

>  <PUBCHEM_OPENEYE_ISO_SMILES>  (1) 
CCCCCC=CCC(C=CC=CC=CC(CCCC(=O)O)O)O

>  <PUBCHEM_CACTVS_TPSA>  (1) 
77.8

>  <PUBCHEM_MONOISOTOPIC_WEIGHT>  (1) 
336.23006

>  <PUBCHEM_TOTAL_CHARGE>  (1) 
0

>  <PUBCHEM_HEAVY_ATOM_COUNT>  (1) 
24

>  <PUBCHEM_ATOM_DEF_STEREO_COUNT>  (1) 
0

>  <PUBCHEM_ATOM_UDEF_STEREO_COUNT>  (1) 
2

>  <PUBCHEM_BOND_DEF_STEREO_COUNT>  (1) 
0

>  <PUBCHEM_BOND_UDEF_STEREO_COUNT>  (1) 
4

>  <PUBCHEM_ISOTOPIC_ATOM_COUNT>  (1) 
0

>  <PUBCHEM_COMPONENT_COUNT>  (1) 
1

>  <PUBCHEM_CACTVS_TAUTO_COUNT>  (1) 
-1

>  <PUBCHEM_COORDINATE_TYPE>  (1) 
1
5
255

>  <PUBCHEM_BONDANNOTATIONS>  (1) 
11  1  3
12  16  1
18  21  1
19  22  1
17  2  3
23  24  1

$$$$
