182
     RDKit          2D

 78 78  0  0  1  0  0  0  0  0999 V2000
   19.4929    0.9689    0.0000 P   0  0  0  0  0  0  0  0  0  0  0  0
   19.2687   -1.6194    0.0000 P   0  0  0  0  0  0  0  0  0  0  0  0
   16.5041    1.2279    0.0000 O   0  0  0  0  0  0  0  0  0  0  0  0
   14.5990    5.3047    0.0000 O   0  0  0  0  0  0  0  0  0  0  0  0
   18.8579    2.3279    0.0000 O   0  0  0  0  0  0  0  0  0  0  0  0
   12.8803    2.8458    0.0000 O   0  0  0  0  0  0  0  0  0  0  0  0
   14.7855   -1.2310    0.0000 O   0  0  0  0  0  0  0  0  0  0  0  0
   20.1280   -0.3900    0.0000 O   0  0  0  0  0  0  0  0  0  0  0  0
   20.8519    1.6040    0.0000 O   0  0  0  0  0  0  0  0  0  0  0  0
   19.7172    3.5573    0.0000 O   0  0  0  0  0  0  0  0  0  0  0  0
   18.1340    0.3339    0.0000 O   0  0  0  0  0  0  0  0  0  0  0  0
   18.4093   -2.8489    0.0000 O   0  0  0  0  0  0  0  0  0  0  0  0
   18.0392   -0.7601    0.0000 O   0  0  0  0  0  0  0  0  0  0  0  0
   20.4981   -2.4788    0.0000 O   0  0  0  0  0  0  0  0  0  0  0  0
   17.5878    5.0457    0.0000 N   0  0  0  0  0  0  0  0  0  0  0  0
   16.7284    3.8163    0.0000 C   0  0  0  0  0  0  0  0  0  0  0  0
   15.2340    3.9458    0.0000 C   0  0  0  0  0  0  0  0  0  0  0  0
   14.3747    2.7163    0.0000 C   0  0  0  0  0  0  0  0  0  0  0  0
   15.0097    1.3574    0.0000 C   0  0  0  0  0  0  0  0  0  0  0  0
   17.3635    2.4574    0.0000 C   0  0  0  0  0  0  0  0  0  0  0  0
   14.1504    0.1280    0.0000 C   0  0  0  0  0  0  0  0  0  0  0  0
   19.0822    4.9162    0.0000 C   0  0  0  0  0  0  0  0  0  0  0  0
   19.9415    6.1457    0.0000 C   0  0  0  0  0  0  0  0  0  0  0  0
   16.9149   -2.7194    0.0000 C   0  0  0  0  0  0  0  0  0  0  0  0
   16.0556   -3.9488    0.0000 C   0  0  0  0  0  0  0  0  0  0  0  0
   14.5612   -3.8194    0.0000 C   0  0  0  0  0  0  0  0  0  0  0  0
   13.9261   -2.4604    0.0000 C   0  0  0  0  0  0  0  0  0  0  0  0
   13.7019   -5.0488    0.0000 C   0  0  0  0  0  0  0  0  0  0  0  0
   12.4317   -2.3309    0.0000 C   0  0  0  0  0  0  0  0  0  0  0  0
   11.7967   -0.9720    0.0000 C   0  0  0  0  0  0  0  0  0  0  0  0
   10.3023   -0.8425    0.0000 C   0  0  0  0  0  0  0  0  0  0  0  0
    9.4429   -2.0720    0.0000 C   0  0  0  0  0  0  0  0  0  0  0  0
    7.9485   -1.9425    0.0000 C   0  0  0  0  0  0  0  0  0  0  0  0
    4.9597   -1.6835    0.0000 C   0  0  0  0  0  0  0  0  0  0  0  0
   -4.0067   -0.9066    0.0000 C   0  0  0  0  0  0  0  0  0  0  0  0
   -8.4899   -0.5181    0.0000 C   0  0  0  0  0  0  0  0  0  0  0  0
    0.4765   -1.2950    0.0000 C   0  0  0  0  0  0  0  0  0  0  0  0
    5.5948   -3.0424    0.0000 C   0  0  0  0  0  0  0  0  0  0  0  0
    3.4653   -1.5540    0.0000 C   0  0  0  0  0  0  0  0  0  0  0  0
   -5.5011   -0.7771    0.0000 C   0  0  0  0  0  0  0  0  0  0  0  0
  -12.9731   -0.1297    0.0000 C   0  0  0  0  0  0  0  0  0  0  0  0
   -1.0179   -1.1656    0.0000 C   0  0  0  0  0  0  0  0  0  0  0  0
   -9.9843   -0.3886    0.0000 C   0  0  0  0  0  0  0  0  0  0  0  0
    7.0892   -3.1719    0.0000 C   0  0  0  0  0  0  0  0  0  0  0  0
    9.6672    0.5164    0.0000 C   0  0  0  0  0  0  0  0  0  0  0  0
  -14.4675   -0.0002    0.0000 C   0  0  0  0  0  0  0  0  0  0  0  0
   -3.3716   -2.2655    0.0000 C   0  0  0  0  0  0  0  0  0  0  0  0
   -7.6305    0.7113    0.0000 C   0  0  0  0  0  0  0  0  0  0  0  0
    1.3359   -0.0656    0.0000 C   0  0  0  0  0  0  0  0  0  0  0  0
  -12.3380   -1.4886    0.0000 C   0  0  0  0  0  0  0  0  0  0  0  0
  -17.4563    0.2588    0.0000 C   0  0  0  0  0  0  0  0  0  0  0  0
  -16.5969    1.4882    0.0000 C   0  0  0  0  0  0  0  0  0  0  0  0
  -18.9507    0.3883    0.0000 C   0  0  0  0  0  0  0  0  0  0  0  0
    2.8303   -0.1951    0.0000 C   0  0  0  0  0  0  0  0  0  0  0  0
   -6.1361    0.5818    0.0000 C   0  0  0  0  0  0  0  0  0  0  0  0
   -1.8772   -2.3950    0.0000 C   0  0  0  0  0  0  0  0  0  0  0  0
  -10.8436   -1.6181    0.0000 C   0  0  0  0  0  0  0  0  0  0  0  0
  -15.1025    1.3588    0.0000 C   0  0  0  0  0  0  0  0  0  0  0  0
  -21.9395    0.6473    0.0000 C   0  0  0  0  0  0  0  0  0  0  0  0
  -21.3044   -0.7117    0.0000 C   0  0  0  0  0  0  0  0  0  0  0  0
  -19.8100   -0.8412    0.0000 C   0  0  0  0  0  0  0  0  0  0  0  0
  -23.4339    0.7767    0.0000 C   0  0  0  0  0  0  0  0  0  0  0  0
    4.7354   -4.2719    0.0000 C   0  0  0  0  0  0  0  0  0  0  0  0
   -4.2310   -3.4950    0.0000 C   0  0  0  0  0  0  0  0  0  0  0  0
   -8.2656    2.0703    0.0000 C   0  0  0  0  0  0  0  0  0  0  0  0
    0.7008    1.2933    0.0000 C   0  0  0  0  0  0  0  0  0  0  0  0
  -13.1974   -2.7180    0.0000 C   0  0  0  0  0  0  0  0  0  0  0  0
  -17.2320    2.8472    0.0000 C   0  0  0  0  0  0  0  0  0  0  0  0
  -24.0689    2.1357    0.0000 C   0  0  0  0  0  0  0  0  0  0  0  0
  -25.5633    2.2652    0.0000 C   0  0  0  0  0  0  0  0  0  0  0  0
  -26.4227    1.0357    0.0000 C   0  0  0  0  0  0  0  0  0  0  0  0
  -22.1638   -1.9411    0.0000 C   0  0  0  0  0  0  0  0  0  0  0  0
  -27.9171    1.1652    0.0000 C   0  0  0  0  0  0  0  0  0  0  0  0
  -26.1984    3.6241    0.0000 C   0  0  0  0  0  0  0  0  0  0  0  0
  -28.7764   -0.0642    0.0000 C   0  0  0  0  0  0  0  0  0  0  0  0
  -30.2708    0.0652    0.0000 C   0  0  0  0  0  0  0  0  0  0  0  0
  -31.1302   -1.1642    0.0000 C   0  0  0  0  0  0  0  0  0  0  0  0
  -30.9059    1.4242    0.0000 C   0  0  0  0  0  0  0  0  0  0  0  0
  1  5  1  0
  1  8  1  0
  1  9  1  0
  1 11  2  0
  2  8  1  0
  2 12  1  0
  2 13  1  0
  2 14  2  0
  3 19  1  0
  3 20  1  0
  4 17  1  0
  5 20  1  0
  6 18  1  0
  7 21  1  0
 10 22  2  0
 12 24  1  0
 15 16  1  0
 15 22  1  0
 16 17  1  0
 16 20  1  0
 17 18  1  0
 18 19  1  0
 19 21  1  0
 22 23  1  0
 24 25  1  0
 25 26  2  3
 26 27  1  0
 26 28  1  0
 27 29  1  0
 29 30  1  0
 30 31  2  3
 31 32  1  0
 31 45  1  0
 32 33  1  0
 33 44  1  0
 34 38  1  0
 34 39  1  0
 35 40  1  0
 35 47  1  0
 36 43  1  0
 36 48  1  0
 37 42  1  0
 37 49  1  0
 38 44  2  3
 38 63  1  0
 39 54  1  0
 40 55  1  0
 41 46  1  0
 41 50  1  0
 42 56  1  0
 43 57  1  0
 46 58  1  0
 47 56  2  3
 47 64  1  0
 48 55  2  3
 48 65  1  0
 49 54  2  3
 49 66  1  0
 50 57  2  3
 50 67  1  0
 51 52  1  0
 51 53  1  0
 52 58  2  3
 52 68  1  0
 53 61  1  0
 59 60  1  0
 59 62  1  0
 60 61  2  3
 60 72  1  0
 62 69  1  0
 69 70  2  3
 70 71  1  0
 70 74  1  0
 71 73  1  0
 73 75  1  0
 75 76  2  3
 76 77  1  0
 76 78  1  0
M  END
>  <PUBCHEM_COMPOUND_CID>  (1) 
182

>  <PUBCHEM_COMPOUND_CANONICALIZED>  (1) 
1

>  <PUBCHEM_CACTVS_COMPLEXITY>  (1) 
2260

>  <PUBCHEM_CACTVS_HBOND_ACCEPTOR>  (1) 
12

>  <PUBCHEM_CACTVS_HBOND_DONOR>  (1) 
6

>  <PUBCHEM_CACTVS_ROTATABLE_BOND>  (1) 
39

>  <PUBCHEM_CACTVS_SUBSKEYS>  (1) 
AAADcfB+PAMAAAAAAAAAAAAAAAAAAAAAAAAkAAAAAAAAAAAAAAAAHgAQCCAADDzxgAcCCALABxCIQiFSEIAAAAAgAAAACIAIAAgTFAIAgQAHUAAHlgCfAAPwcAcAAAAAAAAAAAAAAAAAAAAAAAAAAAAAAA==

>  <PUBCHEM_IUPAC_OPENEYE_NAME>  (1) 
[3-acetamido-4,5-dihydroxy-6-(hydroxymethyl)tetrahydropyran-2-yl] [hydroxy(3,7,11,15,19,23,27,31,35,39,43-undecamethyltetratetraconta-2,6,10,14,18,22,26,30,34,38,42-undecaenoxy)phosphoryl] hydrogen phosphate

>  <PUBCHEM_IUPAC_CAS_NAME>  (1) 
[3-acetamido-4,5-dihydroxy-6-(hydroxymethyl)-2-oxanyl] [hydroxy(3,7,11,15,19,23,27,31,35,39,43-undecamethyltetratetraconta-2,6,10,14,18,22,26,30,34,38,42-undecaenoxy)phosphoryl] hydrogen phosphate

>  <PUBCHEM_IUPAC_NAME_MARKUP>  (1) 
[3-acetamido-4,5-dihydroxy-6-(hydroxymethyl)oxan-2-yl] [hydroxy(3,7,11,15,19,23,27,31,35,39,43-undecamethyltetratetraconta-2,6,10,14,18,22,26,30,34,38,42-undecaenoxy)phosphoryl] hydrogen phosphate

>  <PUBCHEM_IUPAC_NAME>  (1) 
[3-acetamido-4,5-dihydroxy-6-(hydroxymethyl)oxan-2-yl] [hydroxy(3,7,11,15,19,23,27,31,35,39,43-undecamethyltetratetraconta-2,6,10,14,18,22,26,30,34,38,42-undecaenoxy)phosphoryl] hydrogen phosphate

>  <PUBCHEM_IUPAC_SYSTEMATIC_NAME>  (1) 
[3-acetamido-6-(hydroxymethyl)-4,5-bis(oxidanyl)oxan-2-yl] [oxidanyl(3,7,11,15,19,23,27,31,35,39,43-undecamethyltetratetraconta-2,6,10,14,18,22,26,30,34,38,42-undecaenoxy)phosphoryl] hydrogen phosphate

>  <PUBCHEM_IUPAC_TRADITIONAL_NAME>  (1) 
(3-acetamido-4,5-dihydroxy-6-methylol-tetrahydropyran-2-yl) [hydroxy(3,7,11,15,19,23,27,31,35,39,43-undecamethyltetratetraconta-2,6,10,14,18,22,26,30,34,38,42-undecaenoxy)phosphoryl] hydrogen phosphate

>  <PUBCHEM_IUPAC_INCHI>  (1) 
InChI=1S/C63H105NO12P2/c1-47(2)24-14-25-48(3)26-15-27-49(4)28-16-29-50(5)30-17-31-51(6)32-18-33-52(7)34-19-35-53(8)36-20-37-54(9)38-21-39-55(10)40-22-41-56(11)42-23-43-57(12)44-45-73-77(69,70)76-78(71,72)75-63-60(64-58(13)66)62(68)61(67)59(46-65)74-63/h24,26,28,30,32,34,36,38,40,42,44,59-63,65,67-68H,14-23,25,27,29,31,33,35,37,39,41,43,45-46H2,1-13H3,(H,64,66)(H,69,70)(H,71,72)

>  <PUBCHEM_IUPAC_INCHIKEY>  (1) 
NEVJGTXBHJNFAZ-UHFFFAOYSA-N

>  <PUBCHEM_XLOGP3_AA>  (1) 
15.8

>  <PUBCHEM_EXACT_MASS>  (1) 
1129.711202

>  <PUBCHEM_MOLECULAR_FORMULA>  (1) 
C63H105NO12P2

>  <PUBCHEM_MOLECULAR_WEIGHT>  (1) 
1130.5

>  <PUBCHEM_OPENEYE_CAN_SMILES>  (1) 
CC(=CCCC(=CCCC(=CCCC(=CCCC(=CCCC(=CCCC(=CCCC(=CCCC(=CCCC(=CCCC(=CCOP(=O)(O)OP(=O)(O)OC1C(C(C(C(O1)CO)O)O)NC(=O)C)C)C)C)C)C)C)C)C)C)C)C

>  <PUBCHEM_OPENEYE_ISO_SMILES>  (1) 
CC(=CCCC(=CCCC(=CCCC(=CCCC(=CCCC(=CCCC(=CCCC(=CCCC(=CCCC(=CCCC(=CCOP(=O)(O)OP(=O)(O)OC1C(C(C(C(O1)CO)O)O)NC(=O)C)C)C)C)C)C)C)C)C)C)C)C

>  <PUBCHEM_CACTVS_TPSA>  (1) 
201

>  <PUBCHEM_MONOISOTOPIC_WEIGHT>  (1) 
1129.711202

>  <PUBCHEM_TOTAL_CHARGE>  (1) 
0

>  <PUBCHEM_HEAVY_ATOM_COUNT>  (1) 
78

>  <PUBCHEM_ATOM_DEF_STEREO_COUNT>  (1) 
0

>  <PUBCHEM_ATOM_UDEF_STEREO_COUNT>  (1) 
5

>  <PUBCHEM_BOND_DEF_STEREO_COUNT>  (1) 
0

>  <PUBCHEM_BOND_UDEF_STEREO_COUNT>  (1) 
10

>  <PUBCHEM_ISOTOPIC_ATOM_COUNT>  (1) 
0

>  <PUBCHEM_COMPONENT_COUNT>  (1) 
1

>  <PUBCHEM_CACTVS_TAUTO_COUNT>  (1) 
-1

>  <PUBCHEM_COORDINATE_TYPE>  (1) 
1
5
255

>  <PUBCHEM_BONDANNOTATIONS>  (1) 
16  15  3
19  21  3
25  26  1
30  31  1
38  44  1
17  4  3
47  56  1
48  55  1
49  54  1
20  5  3
50  57  1
52  58  1
18  6  3
60  61  1
69  70  1

$$$$
