183
     RDKit          2D

 92 93  0  0  1  0  0  0  0  0999 V2000
   17.8532   -0.4588    0.0000 P   0  0  0  0  0  0  0  0  0  0  0  0
   17.5424   -3.0382    0.0000 P   0  0  0  0  0  0  0  0  0  0  0  0
   11.3071    1.6384    0.0000 O   0  0  0  0  0  0  0  0  0  0  0  0
   11.6179    4.2178    0.0000 O   0  0  0  0  0  0  0  0  0  0  0  0
   14.8748   -0.0999    0.0000 O   0  0  0  0  0  0  0  0  0  0  0  0
   13.1071    4.0384    0.0000 O   0  0  0  0  0  0  0  0  0  0  0  0
   17.2640    0.9206    0.0000 O   0  0  0  0  0  0  0  0  0  0  0  0
    7.1502    4.7562    0.0000 O   0  0  0  0  0  0  0  0  0  0  0  0
    8.9503    7.1561    0.0000 O   0  0  0  0  0  0  0  0  0  0  0  0
   13.0747   -2.4999    0.0000 O   0  0  0  0  0  0  0  0  0  0  0  0
   13.4180    6.6178    0.0000 O   0  0  0  0  0  0  0  0  0  0  0  0
   18.4424   -1.8383    0.0000 O   0  0  0  0  0  0  0  0  0  0  0  0
    6.2502    3.5562    0.0000 O   0  0  0  0  0  0  0  0  0  0  0  0
   19.2326    0.1304    0.0000 O   0  0  0  0  0  0  0  0  0  0  0  0
   18.1640    2.1206    0.0000 O   0  0  0  0  0  0  0  0  0  0  0  0
   16.4738   -1.0480    0.0000 O   0  0  0  0  0  0  0  0  0  0  0  0
   16.6424   -4.2382    0.0000 O   0  0  0  0  0  0  0  0  0  0  0  0
   16.3424   -2.1382    0.0000 O   0  0  0  0  0  0  0  0  0  0  0  0
   18.7424   -3.9383    0.0000 O   0  0  0  0  0  0  0  0  0  0  0  0
    8.3286    1.9973    0.0000 N   0  0  0  0  0  0  0  0  0  0  0  0
   16.0856    3.6795    0.0000 N   0  0  0  0  0  0  0  0  0  0  0  0
   12.7963    1.4589    0.0000 C   0  0  0  0  0  0  0  0  0  0  0  0
   13.6963    2.6589    0.0000 C   0  0  0  0  0  0  0  0  0  0  0  0
    9.2287    3.1973    0.0000 C   0  0  0  0  0  0  0  0  0  0  0  0
   10.7179    3.0178    0.0000 C   0  0  0  0  0  0  0  0  0  0  0  0
   15.1856    2.4795    0.0000 C   0  0  0  0  0  0  0  0  0  0  0  0
   13.3855    0.0795    0.0000 C   0  0  0  0  0  0  0  0  0  0  0  0
    8.6395    4.5767    0.0000 C   0  0  0  0  0  0  0  0  0  0  0  0
    9.5395    5.7767    0.0000 C   0  0  0  0  0  0  0  0  0  0  0  0
   15.7748    1.1001    0.0000 C   0  0  0  0  0  0  0  0  0  0  0  0
   11.0287    5.5972    0.0000 C   0  0  0  0  0  0  0  0  0  0  0  0
   12.4855   -1.1205    0.0000 C   0  0  0  0  0  0  0  0  0  0  0  0
   11.9287    6.7972    0.0000 C   0  0  0  0  0  0  0  0  0  0  0  0
    6.8394    2.1767    0.0000 C   0  0  0  0  0  0  0  0  0  0  0  0
   17.5748    3.5000    0.0000 C   0  0  0  0  0  0  0  0  0  0  0  0
    5.9394    0.9768    0.0000 C   0  0  0  0  0  0  0  0  0  0  0  0
   18.4748    4.7000    0.0000 C   0  0  0  0  0  0  0  0  0  0  0  0
   15.1532   -4.0588    0.0000 C   0  0  0  0  0  0  0  0  0  0  0  0
   14.2531   -5.2588    0.0000 C   0  0  0  0  0  0  0  0  0  0  0  0
   12.7639   -5.0793    0.0000 C   0  0  0  0  0  0  0  0  0  0  0  0
   12.1747   -3.6999    0.0000 C   0  0  0  0  0  0  0  0  0  0  0  0
   11.8639   -6.2793    0.0000 C   0  0  0  0  0  0  0  0  0  0  0  0
   10.6855   -3.5204    0.0000 C   0  0  0  0  0  0  0  0  0  0  0  0
   10.0963   -2.1410    0.0000 C   0  0  0  0  0  0  0  0  0  0  0  0
    8.6070   -1.9616    0.0000 C   0  0  0  0  0  0  0  0  0  0  0  0
    7.7070   -3.1615    0.0000 C   0  0  0  0  0  0  0  0  0  0  0  0
    8.0178   -0.5821    0.0000 C   0  0  0  0  0  0  0  0  0  0  0  0
    6.2178   -2.9821    0.0000 C   0  0  0  0  0  0  0  0  0  0  0  0
    5.3178   -4.1821    0.0000 C   0  0  0  0  0  0  0  0  0  0  0  0
    3.8285   -4.0026    0.0000 C   0  0  0  0  0  0  0  0  0  0  0  0
    3.2393   -2.6232    0.0000 C   0  0  0  0  0  0  0  0  0  0  0  0
    1.7501   -2.4438    0.0000 C   0  0  0  0  0  0  0  0  0  0  0  0
    2.9285   -5.2026    0.0000 C   0  0  0  0  0  0  0  0  0  0  0  0
    1.1609   -1.0643    0.0000 C   0  0  0  0  0  0  0  0  0  0  0  0
   -1.2283   -2.0849    0.0000 C   0  0  0  0  0  0  0  0  0  0  0  0
   -0.3283   -0.8849    0.0000 C   0  0  0  0  0  0  0  0  0  0  0  0
   -2.7176   -1.9054    0.0000 C   0  0  0  0  0  0  0  0  0  0  0  0
   -5.6960   -1.5465    0.0000 C   0  0  0  0  0  0  0  0  0  0  0  0
  -10.1637   -1.0082    0.0000 C   0  0  0  0  0  0  0  0  0  0  0  0
   -7.1853   -1.3671    0.0000 C   0  0  0  0  0  0  0  0  0  0  0  0
  -11.6529   -0.8287    0.0000 C   0  0  0  0  0  0  0  0  0  0  0  0
  -14.6314   -0.4698    0.0000 C   0  0  0  0  0  0  0  0  0  0  0  0
   -5.1068   -2.9260    0.0000 C   0  0  0  0  0  0  0  0  0  0  0  0
   -9.2637    0.1918    0.0000 C   0  0  0  0  0  0  0  0  0  0  0  0
  -16.1206   -0.2904    0.0000 C   0  0  0  0  0  0  0  0  0  0  0  0
  -14.0422   -1.8493    0.0000 C   0  0  0  0  0  0  0  0  0  0  0  0
   -3.6176   -3.1054    0.0000 C   0  0  0  0  0  0  0  0  0  0  0  0
  -19.0991    0.0685    0.0000 C   0  0  0  0  0  0  0  0  0  0  0  0
   -7.7745    0.0124    0.0000 C   0  0  0  0  0  0  0  0  0  0  0  0
  -18.1991    1.2685    0.0000 C   0  0  0  0  0  0  0  0  0  0  0  0
  -12.5530   -2.0287    0.0000 C   0  0  0  0  0  0  0  0  0  0  0  0
  -20.5883    0.2480    0.0000 C   0  0  0  0  0  0  0  0  0  0  0  0
  -16.7098    1.0890    0.0000 C   0  0  0  0  0  0  0  0  0  0  0  0
   -0.9175    0.4946    0.0000 C   0  0  0  0  0  0  0  0  0  0  0  0
  -23.5668    0.6069    0.0000 C   0  0  0  0  0  0  0  0  0  0  0  0
  -22.9776   -0.7726    0.0000 C   0  0  0  0  0  0  0  0  0  0  0  0
  -21.4883   -0.9520    0.0000 C   0  0  0  0  0  0  0  0  0  0  0  0
  -25.0560    0.7863    0.0000 C   0  0  0  0  0  0  0  0  0  0  0  0
   -6.0068   -4.1259    0.0000 C   0  0  0  0  0  0  0  0  0  0  0  0
   -9.8529    1.5712    0.0000 C   0  0  0  0  0  0  0  0  0  0  0  0
  -14.9422   -3.0493    0.0000 C   0  0  0  0  0  0  0  0  0  0  0  0
  -18.7883    2.6479    0.0000 C   0  0  0  0  0  0  0  0  0  0  0  0
  -25.6452    2.1657    0.0000 C   0  0  0  0  0  0  0  0  0  0  0  0
  -27.1344    2.3452    0.0000 C   0  0  0  0  0  0  0  0  0  0  0  0
  -23.8776   -1.9726    0.0000 C   0  0  0  0  0  0  0  0  0  0  0  0
  -28.0344    1.1452    0.0000 C   0  0  0  0  0  0  0  0  0  0  0  0
  -29.5237    1.3246    0.0000 C   0  0  0  0  0  0  0  0  0  0  0  0
  -27.7236    3.7246    0.0000 C   0  0  0  0  0  0  0  0  0  0  0  0
  -30.4237    0.1247    0.0000 C   0  0  0  0  0  0  0  0  0  0  0  0
  -31.9129    0.3041    0.0000 C   0  0  0  0  0  0  0  0  0  0  0  0
  -32.8129   -0.8959    0.0000 C   0  0  0  0  0  0  0  0  0  0  0  0
  -32.5021    1.6835    0.0000 C   0  0  0  0  0  0  0  0  0  0  0  0
  1  7  1  0
  1 12  1  0
  1 14  1  0
  1 16  2  0
  2 12  1  0
  2 17  1  0
  2 18  1  0
  2 19  2  0
  3 22  1  0
  3 25  1  0
  4 25  1  0
  4 31  1  0
  5 27  1  0
  5 30  1  0
  6 23  1  0
  7 30  1  0
  8 28  1  0
  9 29  1  0
 10 32  1  0
 11 33  1  0
 13 34  2  0
 15 35  2  0
 17 38  1  0
 20 24  1  0
 20 34  1  0
 21 26  1  0
 21 35  1  0
 22 23  1  0
 22 27  1  0
 23 26  1  0
 24 25  1  0
 24 28  1  0
 26 30  1  0
 27 32  1  0
 28 29  1  0
 29 31  1  0
 31 33  1  0
 34 36  1  0
 35 37  1  0
 38 39  1  0
 39 40  2  3
 40 41  1  0
 40 42  1  0
 41 43  1  0
 43 44  1  0
 44 45  2  3
 45 46  1  0
 45 47  1  0
 46 48  1  0
 48 49  1  0
 49 50  2  3
 50 51  1  0
 50 53  1  0
 51 52  1  0
 52 54  1  0
 54 56  2  3
 55 56  1  0
 55 57  1  0
 56 74  1  0
 57 67  1  0
 58 60  1  0
 58 63  1  0
 59 61  1  0
 59 64  1  0
 60 69  1  0
 61 71  1  0
 62 65  1  0
 62 66  1  0
 63 67  2  3
 63 79  1  0
 64 69  2  3
 64 80  1  0
 65 73  1  0
 66 71  2  3
 66 81  1  0
 68 70  1  0
 68 72  1  0
 70 73  2  3
 70 82  1  0
 72 77  1  0
 75 76  1  0
 75 78  1  0
 76 77  2  3
 76 85  1  0
 78 83  1  0
 83 84  2  3
 84 86  1  0
 84 88  1  0
 86 87  1  0
 87 89  1  0
 89 90  2  3
 90 91  1  0
 90 92  1  0
M  END
>  <PUBCHEM_COMPOUND_CID>  (1) 
183

>  <PUBCHEM_COMPOUND_CANONICALIZED>  (1) 
1

>  <PUBCHEM_CACTVS_COMPLEXITY>  (1) 
2720

>  <PUBCHEM_CACTVS_HBOND_ACCEPTOR>  (1) 
17

>  <PUBCHEM_CACTVS_HBOND_DONOR>  (1) 
9

>  <PUBCHEM_CACTVS_ROTATABLE_BOND>  (1) 
43

>  <PUBCHEM_CACTVS_SUBSKEYS>  (1) 
AAADcfB/PgMAAAAAAAAAAAAAAAAAAAAAAAAkSAAAAAAAAAAAAAAAHgAQCCAADDzxgAcCCALABxCIQiFSEIAAAAAgAAAACIAIAAgTFAIAgQAnUAAHlgCfAAPwcA8AAAAAAAAAAAAAAAAAAAAAAAAAAAAAAA==

>  <PUBCHEM_IUPAC_OPENEYE_NAME>  (1) 
[3-acetamido-5-[3-acetamido-4,5-dihydroxy-6-(hydroxymethyl)tetrahydropyran-2-yl]oxy-4-hydroxy-6-(hydroxymethyl)tetrahydropyran-2-yl] [hydroxy(3,7,11,15,19,23,27,31,35,39,43-undecamethyltetratetraconta-2,6,10,14,18,22,26,30,34,38,42-undecaenoxy)phosphoryl] hydrogen phosphate

>  <PUBCHEM_IUPAC_CAS_NAME>  (1) 
[3-acetamido-5-[[3-acetamido-4,5-dihydroxy-6-(hydroxymethyl)-2-oxanyl]oxy]-4-hydroxy-6-(hydroxymethyl)-2-oxanyl] [hydroxy(3,7,11,15,19,23,27,31,35,39,43-undecamethyltetratetraconta-2,6,10,14,18,22,26,30,34,38,42-undecaenoxy)phosphoryl] hydrogen phosphate

>  <PUBCHEM_IUPAC_NAME_MARKUP>  (1) 
[3-acetamido-5-[3-acetamido-4,5-dihydroxy-6-(hydroxymethyl)oxan-2-yl]oxy-4-hydroxy-6-(hydroxymethyl)oxan-2-yl] [hydroxy(3,7,11,15,19,23,27,31,35,39,43-undecamethyltetratetraconta-2,6,10,14,18,22,26,30,34,38,42-undecaenoxy)phosphoryl] hydrogen phosphate

>  <PUBCHEM_IUPAC_NAME>  (1) 
[3-acetamido-5-[3-acetamido-4,5-dihydroxy-6-(hydroxymethyl)oxan-2-yl]oxy-4-hydroxy-6-(hydroxymethyl)oxan-2-yl] [hydroxy(3,7,11,15,19,23,27,31,35,39,43-undecamethyltetratetraconta-2,6,10,14,18,22,26,30,34,38,42-undecaenoxy)phosphoryl] hydrogen phosphate

>  <PUBCHEM_IUPAC_SYSTEMATIC_NAME>  (1) 
[3-acetamido-5-[3-acetamido-6-(hydroxymethyl)-4,5-bis(oxidanyl)oxan-2-yl]oxy-6-(hydroxymethyl)-4-oxidanyl-oxan-2-yl] [oxidanyl(3,7,11,15,19,23,27,31,35,39,43-undecamethyltetratetraconta-2,6,10,14,18,22,26,30,34,38,42-undecaenoxy)phosphoryl] hydrogen phosphate

>  <PUBCHEM_IUPAC_TRADITIONAL_NAME>  (1) 
[3-acetamido-5-(3-acetamido-4,5-dihydroxy-6-methylol-tetrahydropyran-2-yl)oxy-4-hydroxy-6-methylol-tetrahydropyran-2-yl] [hydroxy(3,7,11,15,19,23,27,31,35,39,43-undecamethyltetratetraconta-2,6,10,14,18,22,26,30,34,38,42-undecaenoxy)phosphoryl] hydrogen phosphate

>  <PUBCHEM_IUPAC_INCHI>  (1) 
InChI=1S/C71H118N2O17P2/c1-49(2)25-15-26-50(3)27-16-28-51(4)29-17-30-52(5)31-18-32-53(6)33-19-34-54(7)35-20-36-55(8)37-21-38-56(9)39-22-40-57(10)41-23-42-58(11)43-24-44-59(12)45-46-85-91(81,82)90-92(83,84)89-71-65(73-61(14)77)68(80)69(63(48-75)87-71)88-70-64(72-60(13)76)67(79)66(78)62(47-74)86-70/h25,27,29,31,33,35,37,39,41,43,45,62-71,74-75,78-80H,15-24,26,28,30,32,34,36,38,40,42,44,46-48H2,1-14H3,(H,72,76)(H,73,77)(H,81,82)(H,83,84)

>  <PUBCHEM_IUPAC_INCHIKEY>  (1) 
CALMUTCFVFZDOC-UHFFFAOYSA-N

>  <PUBCHEM_XLOGP3_AA>  (1) 
13.7

>  <PUBCHEM_EXACT_MASS>  (1) 
1332.790574

>  <PUBCHEM_MOLECULAR_FORMULA>  (1) 
C71H118N2O17P2

>  <PUBCHEM_MOLECULAR_WEIGHT>  (1) 
1333.6

>  <PUBCHEM_OPENEYE_CAN_SMILES>  (1) 
CC(=CCCC(=CCCC(=CCCC(=CCCC(=CCCC(=CCCC(=CCCC(=CCCC(=CCCC(=CCCC(=CCOP(=O)(O)OP(=O)(O)OC1C(C(C(C(O1)CO)OC2C(C(C(C(O2)CO)O)O)NC(=O)C)O)NC(=O)C)C)C)C)C)C)C)C)C)C)C)C

>  <PUBCHEM_OPENEYE_ISO_SMILES>  (1) 
CC(=CCCC(=CCCC(=CCCC(=CCCC(=CCCC(=CCCC(=CCCC(=CCCC(=CCCC(=CCCC(=CCOP(=O)(O)OP(=O)(O)OC1C(C(C(C(O1)CO)OC2C(C(C(C(O2)CO)O)O)NC(=O)C)O)NC(=O)C)C)C)C)C)C)C)C)C)C)C)C

>  <PUBCHEM_CACTVS_TPSA>  (1) 
289

>  <PUBCHEM_MONOISOTOPIC_WEIGHT>  (1) 
1332.790574

>  <PUBCHEM_TOTAL_CHARGE>  (1) 
0

>  <PUBCHEM_HEAVY_ATOM_COUNT>  (1) 
92

>  <PUBCHEM_ATOM_DEF_STEREO_COUNT>  (1) 
0

>  <PUBCHEM_ATOM_UDEF_STEREO_COUNT>  (1) 
10

>  <PUBCHEM_BOND_DEF_STEREO_COUNT>  (1) 
0

>  <PUBCHEM_BOND_UDEF_STEREO_COUNT>  (1) 
10

>  <PUBCHEM_ISOTOPIC_ATOM_COUNT>  (1) 
0

>  <PUBCHEM_COMPONENT_COUNT>  (1) 
1

>  <PUBCHEM_CACTVS_TAUTO_COUNT>  (1) 
-1

>  <PUBCHEM_COORDINATE_TYPE>  (1) 
1
5
255

>  <PUBCHEM_BONDANNOTATIONS>  (1) 
24  20  3
26  21  3
27  32  3
22  3  3
25  3  3
31  33  3
39  40  1
44  45  1
49  50  1
54  56  1
23  6  3
63  67  1
64  69  1
66  71  1
30  7  3
70  73  1
76  77  1
28  8  3
83  84  1
29  9  3

$$$$
