188
     RDKit          2D

 26 27  0  0  1  0  0  0  0  0999 V2000
    0.6864    1.6210    0.0000 O   0  0  0  0  0  0  0  0  0  0  0  0
    2.0036   -0.6185    0.0000 O   0  0  0  0  0  0  0  0  0  0  0  0
   -3.2045    0.8395    0.0000 O   0  0  0  0  0  0  0  0  0  0  0  0
    0.7106   -1.3789    0.0000 O   0  0  0  0  0  0  0  0  0  0  0  0
    3.2723    3.1419    0.0000 O   0  0  0  0  0  0  0  0  0  0  0  0
    5.8824    1.6629    0.0000 O   0  0  0  0  0  0  0  0  0  0  0  0
   -1.8752   -2.8999    0.0000 O   0  0  0  0  0  0  0  0  0  0  0  0
    5.9066   -1.3370    0.0000 O   0  0  0  0  0  0  0  0  0  0  0  0
   -4.4853   -1.4209    0.0000 O   0  0  0  0  0  0  0  0  0  0  0  0
   -3.2287    3.8394    0.0000 O   0  0  0  0  0  0  0  0  0  0  0  0
    2.0278   -3.6184    0.0000 O   0  0  0  0  0  0  0  0  0  0  0  0
   -5.8025    0.8186    0.0000 O   0  0  0  0  0  0  0  0  0  0  0  0
   -0.6065    0.8605    0.0000 C   0  0  0  0  0  0  0  0  0  0  0  0
   -0.5944   -0.6394    0.0000 C   0  0  0  0  0  0  0  0  0  0  0  0
   -1.9116    1.6000    0.0000 C   0  0  0  0  0  0  0  0  0  0  0  0
    1.9915    0.8815    0.0000 C   0  0  0  0  0  0  0  0  0  0  0  0
    3.2844    1.6420    0.0000 C   0  0  0  0  0  0  0  0  0  0  0  0
    4.5895    0.9025    0.0000 C   0  0  0  0  0  0  0  0  0  0  0  0
   -1.8874   -1.3999    0.0000 C   0  0  0  0  0  0  0  0  0  0  0  0
    4.6016   -0.5975    0.0000 C   0  0  0  0  0  0  0  0  0  0  0  0
    3.3086   -1.3579    0.0000 C   0  0  0  0  0  0  0  0  0  0  0  0
   -3.1924   -0.6604    0.0000 C   0  0  0  0  0  0  0  0  0  0  0  0
   -1.9237    3.1000    0.0000 C   0  0  0  0  0  0  0  0  0  0  0  0
    3.3207   -2.8579    0.0000 C   0  0  0  0  0  0  0  0  0  0  0  0
   -5.7904   -0.6814    0.0000 C   0  0  0  0  0  0  0  0  0  0  0  0
   -7.0833   -1.4419    0.0000 C   0  0  0  0  0  0  0  0  0  0  0  0
  1 13  1  0
  1 16  1  0
  2 16  1  0
  2 21  1  0
  3 15  1  0
  3 22  1  0
  4 14  1  0
  5 17  1  0
  6 18  1  0
  7 19  1  0
  8 20  1  0
  9 22  1  0
  9 25  1  0
 10 23  1  0
 11 24  1  0
 12 25  2  0
 13 14  1  0
 13 15  1  0
 14 19  1  0
 15 23  1  0
 16 17  1  0
 17 18  1  0
 18 20  1  0
 19 22  1  0
 20 21  1  0
 21 24  1  0
 25 26  1  0
M  END
>  <PUBCHEM_COMPOUND_CID>  (1) 
188

>  <PUBCHEM_COMPOUND_CANONICALIZED>  (1) 
1

>  <PUBCHEM_CACTVS_COMPLEXITY>  (1) 
475

>  <PUBCHEM_CACTVS_HBOND_ACCEPTOR>  (1) 
12

>  <PUBCHEM_CACTVS_HBOND_DONOR>  (1) 
7

>  <PUBCHEM_CACTVS_ROTATABLE_BOND>  (1) 
6

>  <PUBCHEM_CACTVS_SUBSKEYS>  (1) 
AAADceBwPAAAAAAAAAAAAAAAAAAAAAAAAAAkSAAAAAAAAAAAAAAAGgAACAAACBSwgAMCCAAABgAIAACQCAAAAAAAAAAAAAAAAAAREAIAAAAiQAAFAAAHAAHAYAwAAAAAAAAAAAAAAAAAAAAAAAAAAAAAAA==

>  <PUBCHEM_IUPAC_OPENEYE_NAME>  (1) 
[3,4-dihydroxy-6-(hydroxymethyl)-5-[3,4,5-trihydroxy-6-(hydroxymethyl)tetrahydropyran-2-yl]oxy-tetrahydropyran-2-yl] acetate

>  <PUBCHEM_IUPAC_CAS_NAME>  (1) 
acetic acid [3,4-dihydroxy-6-(hydroxymethyl)-5-[[3,4,5-trihydroxy-6-(hydroxymethyl)-2-oxanyl]oxy]-2-oxanyl] ester

>  <PUBCHEM_IUPAC_NAME_MARKUP>  (1) 
[3,4-dihydroxy-6-(hydroxymethyl)-5-[3,4,5-trihydroxy-6-(hydroxymethyl)oxan-2-yl]oxyoxan-2-yl] acetate

>  <PUBCHEM_IUPAC_NAME>  (1) 
[3,4-dihydroxy-6-(hydroxymethyl)-5-[3,4,5-trihydroxy-6-(hydroxymethyl)oxan-2-yl]oxyoxan-2-yl] acetate

>  <PUBCHEM_IUPAC_SYSTEMATIC_NAME>  (1) 
[6-(hydroxymethyl)-5-[6-(hydroxymethyl)-3,4,5-tris(oxidanyl)oxan-2-yl]oxy-3,4-bis(oxidanyl)oxan-2-yl] ethanoate

>  <PUBCHEM_IUPAC_TRADITIONAL_NAME>  (1) 
acetic acid [3,4-dihydroxy-6-methylol-5-(3,4,5-trihydroxy-6-methylol-tetrahydropyran-2-yl)oxy-tetrahydropyran-2-yl] ester

>  <PUBCHEM_IUPAC_INCHI>  (1) 
InChI=1S/C14H24O12/c1-4(17)23-13-11(22)9(20)12(6(3-16)25-13)26-14-10(21)8(19)7(18)5(2-15)24-14/h5-16,18-22H,2-3H2,1H3

>  <PUBCHEM_IUPAC_INCHIKEY>  (1) 
QBQSGZSHVKFNMZ-UHFFFAOYSA-N

>  <PUBCHEM_XLOGP3_AA>  (1) 
-4.2

>  <PUBCHEM_EXACT_MASS>  (1) 
384.126776

>  <PUBCHEM_MOLECULAR_FORMULA>  (1) 
C14H24O12

>  <PUBCHEM_MOLECULAR_WEIGHT>  (1) 
384.33

>  <PUBCHEM_OPENEYE_CAN_SMILES>  (1) 
CC(=O)OC1C(C(C(C(O1)CO)OC2C(C(C(C(O2)CO)O)O)O)O)O

>  <PUBCHEM_OPENEYE_ISO_SMILES>  (1) 
CC(=O)OC1C(C(C(C(O1)CO)OC2C(C(C(C(O2)CO)O)O)O)O)O

>  <PUBCHEM_CACTVS_TPSA>  (1) 
196

>  <PUBCHEM_MONOISOTOPIC_WEIGHT>  (1) 
384.126776

>  <PUBCHEM_TOTAL_CHARGE>  (1) 
0

>  <PUBCHEM_HEAVY_ATOM_COUNT>  (1) 
26

>  <PUBCHEM_ATOM_DEF_STEREO_COUNT>  (1) 
0

>  <PUBCHEM_ATOM_UDEF_STEREO_COUNT>  (1) 
10

>  <PUBCHEM_BOND_DEF_STEREO_COUNT>  (1) 
0

>  <PUBCHEM_BOND_UDEF_STEREO_COUNT>  (1) 
0

>  <PUBCHEM_ISOTOPIC_ATOM_COUNT>  (1) 
0

>  <PUBCHEM_COMPONENT_COUNT>  (1) 
1

>  <PUBCHEM_CACTVS_TAUTO_COUNT>  (1) 
-1

>  <PUBCHEM_COORDINATE_TYPE>  (1) 
1
5
255

>  <PUBCHEM_BONDANNOTATIONS>  (1) 
13  1  3
16  1  3
15  23  3
21  24  3
14  4  3
17  5  3
18  6  3
19  7  3
20  8  3
22  9  3

$$$$
