195
     RDKit          2D

 31 33  0  0  1  0  0  0  0  0999 V2000
   -6.5090   -2.7927    0.0000 P   0  0  0  0  0  0  0  0  0  0  0  0
   -3.0829    0.3252    0.0000 O   0  0  0  0  0  0  0  0  0  0  0  0
   -2.9736    4.2051    0.0000 O   0  0  0  0  0  0  0  0  0  0  0  0
   -5.9721    2.9171    0.0000 O   0  0  0  0  0  0  0  0  0  0  0  0
   -5.3812   -1.8038    0.0000 O   0  0  0  0  0  0  0  0  0  0  0  0
   -7.4980   -1.6648    0.0000 O   0  0  0  0  0  0  0  0  0  0  0  0
   -7.6369   -3.7816    0.0000 O   0  0  0  0  0  0  0  0  0  0  0  0
   -5.5201   -3.9205    0.0000 O   0  0  0  0  0  0  0  0  0  0  0  0
    6.3523   -2.3748    0.0000 O   0  0  0  0  0  0  0  0  0  0  0  0
    3.7722   -2.0692    0.0000 O   0  0  0  0  0  0  0  0  0  0  0  0
    9.2852    0.2988    0.0000 O   0  0  0  0  0  0  0  0  0  0  0  0
    7.7305   -1.7827    0.0000 O   0  0  0  0  0  0  0  0  0  0  0  0
   -0.8221    1.7514    0.0000 N   0  0  0  0  0  0  0  0  0  0  0  0
    1.4079    2.7093    0.0000 N   0  0  0  0  0  0  0  0  0  0  0  0
   -0.0096   -0.8660    0.0000 N   0  0  0  0  0  0  0  0  0  0  0  0
    4.1251    0.9100    0.0000 N   0  0  0  0  0  0  0  0  0  0  0  0
    2.5704   -1.1716    0.0000 N   0  0  0  0  0  0  0  0  0  0  0  0
   -3.3048    2.7421    0.0000 C   0  0  0  0  0  0  0  0  0  0  0  0
   -4.6830    2.1501    0.0000 C   0  0  0  0  0  0  0  0  0  0  0  0
   -2.3158    1.6143    0.0000 C   0  0  0  0  0  0  0  0  0  0  0  0
   -4.5459    0.6564    0.0000 C   0  0  0  0  0  0  0  0  0  0  0  0
   -5.6737   -0.3326    0.0000 C   0  0  0  0  0  0  0  0  0  0  0  0
    0.1668    0.6236    0.0000 C   0  0  0  0  0  0  0  0  0  0  0  0
   -0.0551    3.0404    0.0000 C   0  0  0  0  0  0  0  0  0  0  0  0
    1.5450    1.2156    0.0000 C   0  0  0  0  0  0  0  0  0  0  0  0
    2.7468    0.3180    0.0000 C   0  0  0  0  0  0  0  0  0  0  0  0
    5.3269    0.0124    0.0000 C   0  0  0  0  0  0  0  0  0  0  0  0
    1.1922   -1.7636    0.0000 C   0  0  0  0  0  0  0  0  0  0  0  0
    6.7051    0.6044    0.0000 C   0  0  0  0  0  0  0  0  0  0  0  0
    5.1505   -1.4772    0.0000 C   0  0  0  0  0  0  0  0  0  0  0  0
    7.9069   -0.2932    0.0000 C   0  0  0  0  0  0  0  0  0  0  0  0
  1  5  1  0
  1  6  1  0
  1  7  1  0
  1  8  2  0
  2 20  1  0
  2 21  1  0
  3 18  1  0
  4 19  1  0
  5 22  1  0
  9 30  1  0
 10 30  2  0
 11 31  1  0
 12 31  2  0
 13 20  1  0
 13 23  1  0
 13 24  1  0
 14 24  2  0
 14 25  1  0
 15 23  1  0
 15 28  2  0
 16 26  1  0
 16 27  1  0
 17 26  2  0
 17 28  1  0
 18 19  1  0
 18 20  1  0
 19 21  1  0
 21 22  1  0
 23 25  2  0
 25 26  1  0
 27 29  1  0
 27 30  1  0
 29 31  1  0
M  END
>  <PUBCHEM_COMPOUND_CID>  (1) 
195

>  <PUBCHEM_COMPOUND_CANONICALIZED>  (1) 
1

>  <PUBCHEM_CACTVS_COMPLEXITY>  (1) 
725

>  <PUBCHEM_CACTVS_HBOND_ACCEPTOR>  (1) 
15

>  <PUBCHEM_CACTVS_HBOND_DONOR>  (1) 
7

>  <PUBCHEM_CACTVS_ROTATABLE_BOND>  (1) 
9

>  <PUBCHEM_CACTVS_SUBSKEYS>  (1) 
AAADceBzvAIAAAAAAAAAAAAAAAAAAWJAAAAsAAAAAAAAAFgB+AAAHgAQCCAACDzhlwYF+L/MFxCoQQbxbICAgC0REKABUKGoVBCDWBpAyGAeRAgPEALTACDzMAIAAAAAAAAAAAAAAAAAAAAAAAAAAAAAAA==

>  <PUBCHEM_IUPAC_OPENEYE_NAME>  (1) 
2-[[9-[3,4-dihydroxy-5-(phosphonooxymethyl)tetrahydrofuran-2-yl]purin-6-yl]amino]butanedioic acid

>  <PUBCHEM_IUPAC_CAS_NAME>  (1) 
2-[[9-[3,4-dihydroxy-5-(phosphonooxymethyl)-2-oxolanyl]-6-purinyl]amino]butanedioic acid

>  <PUBCHEM_IUPAC_NAME_MARKUP>  (1) 
2-[[9-[3,4-dihydroxy-5-(phosphonooxymethyl)oxolan-2-yl]purin-6-yl]amino]butanedioic acid

>  <PUBCHEM_IUPAC_NAME>  (1) 
2-[[9-[3,4-dihydroxy-5-(phosphonooxymethyl)oxolan-2-yl]purin-6-yl]amino]butanedioic acid

>  <PUBCHEM_IUPAC_SYSTEMATIC_NAME>  (1) 
2-[[9-[3,4-bis(oxidanyl)-5-(phosphonooxymethyl)oxolan-2-yl]purin-6-yl]amino]butanedioic acid

>  <PUBCHEM_IUPAC_TRADITIONAL_NAME>  (1) 
2-[[9-[3,4-dihydroxy-5-(phosphonooxymethyl)tetrahydrofuran-2-yl]purin-6-yl]amino]succinic acid

>  <PUBCHEM_IUPAC_INCHI>  (1) 
InChI=1S/C14H18N5O11P/c20-7(21)1-5(14(24)25)18-11-8-12(16-3-15-11)19(4-17-8)13-10(23)9(22)6(30-13)2-29-31(26,27)28/h3-6,9-10,13,22-23H,1-2H2,(H,20,21)(H,24,25)(H,15,16,18)(H2,26,27,28)

>  <PUBCHEM_IUPAC_INCHIKEY>  (1) 
OFBHPPMPBOJXRT-UHFFFAOYSA-N

>  <PUBCHEM_XLOGP3>  (1) 
-3.2

>  <PUBCHEM_EXACT_MASS>  (1) 
463.074043

>  <PUBCHEM_MOLECULAR_FORMULA>  (1) 
C14H18N5O11P

>  <PUBCHEM_MOLECULAR_WEIGHT>  (1) 
463.29

>  <PUBCHEM_OPENEYE_CAN_SMILES>  (1) 
C1=NC(=C2C(=N1)N(C=N2)C3C(C(C(O3)COP(=O)(O)O)O)O)NC(CC(=O)O)C(=O)O

>  <PUBCHEM_OPENEYE_ISO_SMILES>  (1) 
C1=NC(=C2C(=N1)N(C=N2)C3C(C(C(O3)COP(=O)(O)O)O)O)NC(CC(=O)O)C(=O)O

>  <PUBCHEM_CACTVS_TPSA>  (1) 
247

>  <PUBCHEM_MONOISOTOPIC_WEIGHT>  (1) 
463.074043

>  <PUBCHEM_TOTAL_CHARGE>  (1) 
0

>  <PUBCHEM_HEAVY_ATOM_COUNT>  (1) 
31

>  <PUBCHEM_ATOM_DEF_STEREO_COUNT>  (1) 
0

>  <PUBCHEM_ATOM_UDEF_STEREO_COUNT>  (1) 
5

>  <PUBCHEM_BOND_DEF_STEREO_COUNT>  (1) 
0

>  <PUBCHEM_BOND_UDEF_STEREO_COUNT>  (1) 
0

>  <PUBCHEM_ISOTOPIC_ATOM_COUNT>  (1) 
0

>  <PUBCHEM_COMPONENT_COUNT>  (1) 
1

>  <PUBCHEM_CACTVS_TAUTO_COUNT>  (1) 
-1

>  <PUBCHEM_COORDINATE_TYPE>  (1) 
1
5
255

>  <PUBCHEM_BONDANNOTATIONS>  (1) 
20  13  3
13  23  8
13  24  8
14  24  8
14  25  8
15  23  8
15  28  8
17  26  8
17  28  8
21  22  3
23  25  8
25  26  8
27  29  3
18  3  3
19  4  3

$$$$
