205
     RDKit          2D

  8  7  0  0  1  0  0  0  0  0999 V2000
   -1.2990    1.6875    0.0000 O   0  0  0  0  0  0  0  0  0  0  0  0
    2.5981   -0.5625    0.0000 O   0  0  0  0  0  0  0  0  0  0  0  0
    1.2990    1.6875    0.0000 O   0  0  0  0  0  0  0  0  0  0  0  0
    0.0000   -2.0625    0.0000 N   0  0  0  0  0  0  0  0  0  0  0  0
   -1.2990    0.1875    0.0000 C   0  0  0  0  0  0  0  0  0  0  0  0
    0.0000   -0.5625    0.0000 C   0  0  0  0  0  0  0  0  0  0  0  0
   -2.5981   -0.5625    0.0000 C   0  0  0  0  0  0  0  0  0  0  0  0
    1.2990    0.1875    0.0000 C   0  0  0  0  0  0  0  0  0  0  0  0
  1  5  1  0
  2  8  1  0
  3  8  2  0
  4  6  1  0
  5  6  1  0
  5  7  1  0
  6  8  1  0
M  END
>  <PUBCHEM_COMPOUND_CID>  (1) 
205

>  <PUBCHEM_COMPOUND_CANONICALIZED>  (1) 
1

>  <PUBCHEM_CACTVS_COMPLEXITY>  (1) 
93.3

>  <PUBCHEM_CACTVS_HBOND_ACCEPTOR>  (1) 
4

>  <PUBCHEM_CACTVS_HBOND_DONOR>  (1) 
3

>  <PUBCHEM_CACTVS_ROTATABLE_BOND>  (1) 
2

>  <PUBCHEM_CACTVS_SUBSKEYS>  (1) 
AAADccBiMAAAAAAAAAAAAAAAAAAAAAAAAAAAAAAAAAAAAAAAAAAAHgAQCAAACDzhgAYCCABAAgAIAACQCAAAAAAAAAAAAIGAAAACEBQAAAAAQAAFMAAAAAAAAAAAAAAAAAAAAAAAAAAAAAAAAAAAAAAAAA==

>  <PUBCHEM_IUPAC_OPENEYE_NAME>  (1) 
2-amino-3-hydroxy-butanoic acid

>  <PUBCHEM_IUPAC_CAS_NAME>  (1) 
2-amino-3-hydroxybutanoic acid

>  <PUBCHEM_IUPAC_NAME_MARKUP>  (1) 
2-amino-3-hydroxybutanoic acid

>  <PUBCHEM_IUPAC_NAME>  (1) 
2-amino-3-hydroxybutanoic acid

>  <PUBCHEM_IUPAC_SYSTEMATIC_NAME>  (1) 
2-azanyl-3-oxidanyl-butanoic acid

>  <PUBCHEM_IUPAC_TRADITIONAL_NAME>  (1) 
2-amino-3-hydroxy-butyric acid

>  <PUBCHEM_IUPAC_INCHI>  (1) 
InChI=1S/C4H9NO3/c1-2(6)3(5)4(7)8/h2-3,6H,5H2,1H3,(H,7,8)

>  <PUBCHEM_IUPAC_INCHIKEY>  (1) 
AYFVYJQAPQTCCC-UHFFFAOYSA-N

>  <PUBCHEM_XLOGP3>  (1) 
-2.9

>  <PUBCHEM_EXACT_MASS>  (1) 
119.058243

>  <PUBCHEM_MOLECULAR_FORMULA>  (1) 
C4H9NO3

>  <PUBCHEM_MOLECULAR_WEIGHT>  (1) 
119.12

>  <PUBCHEM_OPENEYE_CAN_SMILES>  (1) 
CC(C(C(=O)O)N)O

>  <PUBCHEM_OPENEYE_ISO_SMILES>  (1) 
CC(C(C(=O)O)N)O

>  <PUBCHEM_CACTVS_TPSA>  (1) 
83.6

>  <PUBCHEM_MONOISOTOPIC_WEIGHT>  (1) 
119.058243

>  <PUBCHEM_TOTAL_CHARGE>  (1) 
0

>  <PUBCHEM_HEAVY_ATOM_COUNT>  (1) 
8

>  <PUBCHEM_ATOM_DEF_STEREO_COUNT>  (1) 
0

>  <PUBCHEM_ATOM_UDEF_STEREO_COUNT>  (1) 
2

>  <PUBCHEM_BOND_DEF_STEREO_COUNT>  (1) 
0

>  <PUBCHEM_BOND_UDEF_STEREO_COUNT>  (1) 
0

>  <PUBCHEM_ISOTOPIC_ATOM_COUNT>  (1) 
0

>  <PUBCHEM_COMPONENT_COUNT>  (1) 
1

>  <PUBCHEM_CACTVS_TAUTO_COUNT>  (1) 
-1

>  <PUBCHEM_COORDINATE_TYPE>  (1) 
1
5
255

>  <PUBCHEM_BONDANNOTATIONS>  (1) 
5  1  3
6  4  3

$$$$
