206
     RDKit          2D

 12 12  0  0  1  0  0  0  0  0999 V2000
   -0.6635   -1.3626    0.0000 O   0  0  0  0  0  0  0  0  0  0  0  0
   -1.1277    2.5788    0.0000 O   0  0  0  0  0  0  0  0  0  0  0  0
    1.8643    2.3604    0.0000 O   0  0  0  0  0  0  0  0  0  0  0  0
    3.1712   -0.3400    0.0000 O   0  0  0  0  0  0  0  0  0  0  0  0
    1.4860   -2.8220    0.0000 O   0  0  0  0  0  0  0  0  0  0  0  0
   -3.6555   -1.1442    0.0000 O   0  0  0  0  0  0  0  0  0  0  0  0
   -0.4743    1.2286    0.0000 C   0  0  0  0  0  0  0  0  0  0  0  0
    1.0217    1.1194    0.0000 C   0  0  0  0  0  0  0  0  0  0  0  0
   -1.3169   -0.0124    0.0000 C   0  0  0  0  0  0  0  0  0  0  0  0
    1.6751   -0.2308    0.0000 C   0  0  0  0  0  0  0  0  0  0  0  0
    0.8326   -1.4718    0.0000 C   0  0  0  0  0  0  0  0  0  0  0  0
   -2.8129    0.0968    0.0000 C   0  0  0  0  0  0  0  0  0  0  0  0
  1  9  1  0
  1 11  1  0
  2  7  1  0
  3  8  1  0
  4 10  1  0
  5 11  1  0
  6 12  1  0
  7  8  1  0
  7  9  1  0
  8 10  1  0
  9 12  1  0
 10 11  1  0
M  END
>  <PUBCHEM_COMPOUND_CID>  (1) 
206

>  <PUBCHEM_COMPOUND_CANONICALIZED>  (1) 
1

>  <PUBCHEM_CACTVS_COMPLEXITY>  (1) 
151

>  <PUBCHEM_CACTVS_HBOND_ACCEPTOR>  (1) 
6

>  <PUBCHEM_CACTVS_HBOND_DONOR>  (1) 
5

>  <PUBCHEM_CACTVS_ROTATABLE_BOND>  (1) 
1

>  <PUBCHEM_CACTVS_SUBSKEYS>  (1) 
AAADccBgOAAAAAAAAAAAAAAAAAAAAAAAAAAkAAAAAAAAAAAAAAAAGgAACAAACBSwgAMACAAABgAAAAAAAAAAAAAAAAAAAAAAAAAREAIAAAACQAAFAAAHAAHAYAQAAAAAAAAAAAAAAAAAAAAAAAAAAAAAAA==

>  <PUBCHEM_IUPAC_OPENEYE_NAME>  (1) 
6-(hydroxymethyl)tetrahydropyran-2,3,4,5-tetrol

>  <PUBCHEM_IUPAC_CAS_NAME>  (1) 
6-(hydroxymethyl)oxane-2,3,4,5-tetrol

>  <PUBCHEM_IUPAC_NAME_MARKUP>  (1) 
6-(hydroxymethyl)oxane-2,3,4,5-tetrol

>  <PUBCHEM_IUPAC_NAME>  (1) 
6-(hydroxymethyl)oxane-2,3,4,5-tetrol

>  <PUBCHEM_IUPAC_SYSTEMATIC_NAME>  (1) 
6-(hydroxymethyl)oxane-2,3,4,5-tetrol

>  <PUBCHEM_IUPAC_TRADITIONAL_NAME>  (1) 
6-methyloltetrahydropyran-2,3,4,5-tetrol

>  <PUBCHEM_IUPAC_INCHI>  (1) 
InChI=1S/C6H12O6/c7-1-2-3(8)4(9)5(10)6(11)12-2/h2-11H,1H2

>  <PUBCHEM_IUPAC_INCHIKEY>  (1) 
WQZGKKKJIJFFOK-UHFFFAOYSA-N

>  <PUBCHEM_XLOGP3_AA>  (1) 
-2.6

>  <PUBCHEM_EXACT_MASS>  (1) 
180.063388

>  <PUBCHEM_MOLECULAR_FORMULA>  (1) 
C6H12O6

>  <PUBCHEM_MOLECULAR_WEIGHT>  (1) 
180.16

>  <PUBCHEM_OPENEYE_CAN_SMILES>  (1) 
C(C1C(C(C(C(O1)O)O)O)O)O

>  <PUBCHEM_OPENEYE_ISO_SMILES>  (1) 
C(C1C(C(C(C(O1)O)O)O)O)O

>  <PUBCHEM_CACTVS_TPSA>  (1) 
110

>  <PUBCHEM_MONOISOTOPIC_WEIGHT>  (1) 
180.063388

>  <PUBCHEM_TOTAL_CHARGE>  (1) 
0

>  <PUBCHEM_HEAVY_ATOM_COUNT>  (1) 
12

>  <PUBCHEM_ATOM_DEF_STEREO_COUNT>  (1) 
0

>  <PUBCHEM_ATOM_UDEF_STEREO_COUNT>  (1) 
5

>  <PUBCHEM_BOND_DEF_STEREO_COUNT>  (1) 
0

>  <PUBCHEM_BOND_UDEF_STEREO_COUNT>  (1) 
0

>  <PUBCHEM_ISOTOPIC_ATOM_COUNT>  (1) 
0

>  <PUBCHEM_COMPONENT_COUNT>  (1) 
1

>  <PUBCHEM_CACTVS_TAUTO_COUNT>  (1) 
-1

>  <PUBCHEM_COORDINATE_TYPE>  (1) 
1
5
255

>  <PUBCHEM_BONDANNOTATIONS>  (1) 
7  2  3
8  3  3
10  4  3
11  5  3
9  12  3

$$$$
