209
     RDKit          2D

 71 74  0  0  1  0  0  0  0  0999 V2000
    6.3047   -2.9037    0.0000 O   0  0  0  0  0  0  0  0  0  0  0  0
    2.7992    0.9319    0.0000 O   0  0  0  0  0  0  0  0  0  0  0  0
    8.7985   -1.3195    0.0000 O   0  0  0  0  0  0  0  0  0  0  0  0
   -1.1680    0.8258    0.0000 O   0  0  0  0  0  0  0  0  0  0  0  0
   -2.9207    2.7436    0.0000 O   0  0  0  0  0  0  0  0  0  0  0  0
    2.0147   -1.5449    0.0000 O   0  0  0  0  0  0  0  0  0  0  0  0
   -6.5652    1.1727    0.0000 O   0  0  0  0  0  0  0  0  0  0  0  0
    2.1537    3.8616    0.0000 O   0  0  0  0  0  0  0  0  0  0  0  0
    5.6592    0.0260    0.0000 O   0  0  0  0  0  0  0  0  0  0  0  0
    4.0902   -4.9276    0.0000 O   0  0  0  0  0  0  0  0  0  0  0  0
    5.2320    1.4246    0.0000 O   0  0  0  0  0  0  0  0  0  0  0  0
   -2.2752   -0.1861    0.0000 O   0  0  0  0  0  0  0  0  0  0  0  0
   10.5805    2.2265    0.0000 O   0  0  0  0  0  0  0  0  0  0  0  0
   -0.5225   -2.1039    0.0000 O   0  0  0  0  0  0  0  0  0  0  0  0
   -0.1998   -3.5688    0.0000 O   0  0  0  0  0  0  0  0  0  0  0  0
    7.5218   -4.4875    0.0000 O   0  0  0  0  0  0  0  0  0  0  0  0
   11.3739   -1.6620    0.0000 O   0  0  0  0  0  0  0  0  0  0  0  0
   -7.2107    4.1024    0.0000 O   0  0  0  0  0  0  0  0  0  0  0  0
    9.7149   -3.0944    0.0000 O   0  0  0  0  0  0  0  0  0  0  0  0
   14.1470   -0.5176    0.0000 O   0  0  0  0  0  0  0  0  0  0  0  0
   -3.2435    4.2085    0.0000 O   0  0  0  0  0  0  0  0  0  0  0  0
    7.0140    4.9706    0.0000 O   0  0  0  0  0  0  0  0  0  0  0  0
   -7.0269   -2.7690    0.0000 O   0  0  0  0  0  0  0  0  0  0  0  0
   -9.1024    0.6137    0.0000 O   0  0  0  0  0  0  0  0  0  0  0  0
  -12.1014   -3.8870    0.0000 O   0  0  0  0  0  0  0  0  0  0  0  0
  -14.1769   -0.5043    0.0000 O   0  0  0  0  0  0  0  0  0  0  0  0
   -0.7062    4.7675    0.0000 N   0  0  0  0  0  0  0  0  0  0  0  0
    8.0051    2.5690    0.0000 N   0  0  0  0  0  0  0  0  0  0  0  0
   -4.4897   -2.2100    0.0000 N   0  0  0  0  0  0  0  0  0  0  0  0
   -7.3497   -1.3041    0.0000 N   0  0  0  0  0  0  0  0  0  0  0  0
  -11.6396    0.0547    0.0000 N   0  0  0  0  0  0  0  0  0  0  0  0
  -13.8541   -1.9692    0.0000 N   0  0  0  0  0  0  0  0  0  0  0  0
    1.3692    1.3848    0.0000 C   0  0  0  0  0  0  0  0  0  0  0  0
    4.8747   -2.4508    0.0000 C   0  0  0  0  0  0  0  0  0  0  0  0
    1.0465    2.8497    0.0000 C   0  0  0  0  0  0  0  0  0  0  0  0
   -0.3835    3.3026    0.0000 C   0  0  0  0  0  0  0  0  0  0  0  0
    7.4119   -1.8918    0.0000 C   0  0  0  0  0  0  0  0  0  0  0  0
    4.5519   -0.9859    0.0000 C   0  0  0  0  0  0  0  0  0  0  0  0
    3.1220   -0.5330    0.0000 C   0  0  0  0  0  0  0  0  0  0  0  0
   -1.4907    2.2907    0.0000 C   0  0  0  0  0  0  0  0  0  0  0  0
    0.2620    0.3729    0.0000 C   0  0  0  0  0  0  0  0  0  0  0  0
    7.8074    1.0821    0.0000 C   0  0  0  0  0  0  0  0  0  0  0  0
    8.9962    0.1674    0.0000 C   0  0  0  0  0  0  0  0  0  0  0  0
    3.7674   -3.4627    0.0000 C   0  0  0  0  0  0  0  0  0  0  0  0
    6.2231   -0.9771    0.0000 C   0  0  0  0  0  0  0  0  0  0  0  0
    6.4208    0.5099    0.0000 C   0  0  0  0  0  0  0  0  0  0  0  0
   -4.0280    1.7317    0.0000 C   0  0  0  0  0  0  0  0  0  0  0  0
    2.3375   -3.0098    0.0000 C   0  0  0  0  0  0  0  0  0  0  0  0
   -3.7052    0.2668    0.0000 C   0  0  0  0  0  0  0  0  0  0  0  0
   -5.4579    2.1846    0.0000 C   0  0  0  0  0  0  0  0  0  0  0  0
   -4.8125   -0.7451    0.0000 C   0  0  0  0  0  0  0  0  0  0  0  0
   10.3828    0.7396    0.0000 C   0  0  0  0  0  0  0  0  0  0  0  0
   -6.2424   -0.2922    0.0000 C   0  0  0  0  0  0  0  0  0  0  0  0
    0.5847   -1.0920    0.0000 C   0  0  0  0  0  0  0  0  0  0  0  0
    1.2302   -4.0217    0.0000 C   0  0  0  0  0  0  0  0  0  0  0  0
    8.2162   -3.1579    0.0000 C   0  0  0  0  0  0  0  0  0  0  0  0
   11.5716   -0.1751    0.0000 C   0  0  0  0  0  0  0  0  0  0  0  0
   -5.7807    3.6495    0.0000 C   0  0  0  0  0  0  0  0  0  0  0  0
   -2.1362    5.2204    0.0000 C   0  0  0  0  0  0  0  0  0  0  0  0
   12.9582    0.3971    0.0000 C   0  0  0  0  0  0  0  0  0  0  0  0
    6.8163    3.4837    0.0000 C   0  0  0  0  0  0  0  0  0  0  0  0
   -5.5970   -3.2219    0.0000 C   0  0  0  0  0  0  0  0  0  0  0  0
   -8.7797   -0.8512    0.0000 C   0  0  0  0  0  0  0  0  0  0  0  0
   -2.4590    6.6853    0.0000 C   0  0  0  0  0  0  0  0  0  0  0  0
    5.4297    2.9115    0.0000 C   0  0  0  0  0  0  0  0  0  0  0  0
   -9.8869   -1.8631    0.0000 C   0  0  0  0  0  0  0  0  0  0  0  0
   -5.2742   -4.6868    0.0000 C   0  0  0  0  0  0  0  0  0  0  0  0
  -11.3169   -1.4102    0.0000 C   0  0  0  0  0  0  0  0  0  0  0  0
  -12.4241   -2.4221    0.0000 C   0  0  0  0  0  0  0  0  0  0  0  0
  -13.0696    0.5076    0.0000 C   0  0  0  0  0  0  0  0  0  0  0  0
  -13.3924    1.9725    0.0000 C   0  0  0  0  0  0  0  0  0  0  0  0
  1 34  1  0
  1 37  1  0
  2 33  1  0
  2 39  1  0
  3 37  1  0
  3 43  1  0
  4 40  1  0
  4 41  1  0
  5 40  1  0
  5 47  1  0
  6 39  1  0
  6 48  1  0
  7 50  1  0
  7 53  1  0
  8 35  1  0
  9 38  1  0
 10 44  1  0
 11 46  1  0
 12 49  1  0
 13 52  1  0
 14 54  1  0
 15 55  1  0
 16 56  1  0
 17 57  1  0
 18 58  1  0
 19 56  2  0
 20 60  1  0
 21 59  2  0
 22 61  2  0
 23 62  2  0
 24 63  2  0
 25 69  2  0
 26 70  2  0
 27 36  1  0
 27 59  1  0
 28 42  1  0
 28 61  1  0
 29 51  1  0
 29 62  1  0
 30 53  1  0
 30 63  1  0
 31 68  1  0
 31 70  1  0
 32 69  1  0
 33 35  1  0
 33 41  1  0
 34 38  1  0
 34 44  1  0
 35 36  1  0
 36 40  1  0
 37 45  1  0
 37 56  1  0
 38 39  1  0
 41 54  1  0
 42 43  1  0
 42 46  1  0
 43 52  1  0
 44 48  1  0
 45 46  1  0
 47 49  1  0
 47 50  1  0
 48 55  1  0
 49 51  1  0
 50 58  1  0
 51 53  1  0
 52 57  1  0
 57 60  1  0
 59 64  1  0
 61 65  1  0
 62 67  1  0
 63 66  1  0
 66 68  1  0
 68 69  1  0
 70 71  1  0
M  END
>  <PUBCHEM_COMPOUND_CID>  (1) 
209

>  <PUBCHEM_COMPOUND_CANONICALIZED>  (1) 
1

>  <PUBCHEM_CACTVS_COMPLEXITY>  (1) 
1870

>  <PUBCHEM_CACTVS_HBOND_ACCEPTOR>  (1) 
26

>  <PUBCHEM_CACTVS_HBOND_DONOR>  (1) 
18

>  <PUBCHEM_CACTVS_ROTATABLE_BOND>  (1) 
21

>  <PUBCHEM_CACTVS_SUBSKEYS>  (1) 
AAADcfB/vgAAAAAAAAAAAAAAAAAAAAAAAAAkSJEgAAAAAAAAAAAAHgAQCAAACDzxgAcCCALABgAIAAGQGAIAAAAAAAAAAIHIAAETUBoAwCQ/QAAHFgCXAAH/+a+QAAAAAAAAAAAAAAAAAAAAAAAAAAAAAA==

>  <PUBCHEM_IUPAC_OPENEYE_NAME>  (1) 
5-acetamido-2-[2-[5-acetamido-6-[5-acetamido-6-[(3-acetamido-4-amino-4-oxo-butanoyl)amino]-4-hydroxy-2-(hydroxymethyl)tetrahydropyran-3-yl]oxy-4-hydroxy-2-(hydroxymethyl)tetrahydropyran-3-yl]oxy-3,5-dihydroxy-6-(hydroxymethyl)tetrahydropyran-4-yl]oxy-4-hydroxy-6-(1,2,3-trihydroxypropyl)tetrahydropyran-2-carboxylic acid

>  <PUBCHEM_IUPAC_CAS_NAME>  (1) 
5-acetamido-2-[[2-[[5-acetamido-6-[[5-acetamido-6-[(3-acetamido-4-amino-1,4-dioxobutyl)amino]-4-hydroxy-2-(hydroxymethyl)-3-oxanyl]oxy]-4-hydroxy-2-(hydroxymethyl)-3-oxanyl]oxy]-3,5-dihydroxy-6-(hydroxymethyl)-4-oxanyl]oxy]-4-hydroxy-6-(1,2,3-trihydroxypropyl)-2-oxanecarboxylic acid

>  <PUBCHEM_IUPAC_NAME_MARKUP>  (1) 
5-acetamido-2-[2-[5-acetamido-6-[5-acetamido-6-[(3-acetamido-4-amino-4-oxobutanoyl)amino]-4-hydroxy-2-(hydroxymethyl)oxan-3-yl]oxy-4-hydroxy-2-(hydroxymethyl)oxan-3-yl]oxy-3,5-dihydroxy-6-(hydroxymethyl)oxan-4-yl]oxy-4-hydroxy-6-(1,2,3-trihydroxypropyl)oxane-2-carboxylic acid

>  <PUBCHEM_IUPAC_NAME>  (1) 
5-acetamido-2-[2-[5-acetamido-6-[5-acetamido-6-[(3-acetamido-4-amino-4-oxobutanoyl)amino]-4-hydroxy-2-(hydroxymethyl)oxan-3-yl]oxy-4-hydroxy-2-(hydroxymethyl)oxan-3-yl]oxy-3,5-dihydroxy-6-(hydroxymethyl)oxan-4-yl]oxy-4-hydroxy-6-(1,2,3-trihydroxypropyl)oxane-2-carboxylic acid

>  <PUBCHEM_IUPAC_SYSTEMATIC_NAME>  (1) 
5-acetamido-2-[2-[5-acetamido-6-[5-acetamido-6-[(3-acetamido-4-azanyl-4-oxidanylidene-butanoyl)amino]-2-(hydroxymethyl)-4-oxidanyl-oxan-3-yl]oxy-2-(hydroxymethyl)-4-oxidanyl-oxan-3-yl]oxy-6-(hydroxymethyl)-3,5-bis(oxidanyl)oxan-4-yl]oxy-4-oxidanyl-6-[1,2,3-tris(oxidanyl)propyl]oxane-2-carboxylic acid

>  <PUBCHEM_IUPAC_TRADITIONAL_NAME>  (1) 
5-acetamido-2-[2-[5-acetamido-6-[5-acetamido-6-[(3-acetamido-4-amino-4-keto-butanoyl)amino]-4-hydroxy-2-methylol-tetrahydropyran-3-yl]oxy-4-hydroxy-2-methylol-tetrahydropyran-3-yl]oxy-3,5-dihydroxy-6-methylol-tetrahydropyran-4-yl]oxy-4-hydroxy-6-(1,2,3-trihydroxypropyl)tetrahydropyran-2-carboxylic acid

>  <PUBCHEM_IUPAC_INCHI>  (1) 
InChI=1S/C39H64N6O26/c1-11(50)41-15(34(40)62)5-21(56)45-35-23(43-13(3)52)27(59)30(19(9-48)65-35)68-36-24(44-14(4)53)28(60)31(20(10-49)67-36)69-37-29(61)33(26(58)18(8-47)66-37)71-39(38(63)64)6-16(54)22(42-12(2)51)32(70-39)25(57)17(55)7-46/h15-20,22-33,35-37,46-49,54-55,57-61H,5-10H2,1-4H3,(H2,40,62)(H,41,50)(H,42,51)(H,43,52)(H,44,53)(H,45,56)(H,63,64)

>  <PUBCHEM_IUPAC_INCHIKEY>  (1) 
ZTGNGDIIWOADCE-UHFFFAOYSA-N

>  <PUBCHEM_XLOGP3_AA>  (1) 
-11.1

>  <PUBCHEM_EXACT_MASS>  (1) 
1032.387026

>  <PUBCHEM_MOLECULAR_FORMULA>  (1) 
C39H64N6O26

>  <PUBCHEM_MOLECULAR_WEIGHT>  (1) 
1032.9

>  <PUBCHEM_OPENEYE_CAN_SMILES>  (1) 
CC(=O)NC1C(CC(OC1C(C(CO)O)O)(C(=O)O)OC2C(C(OC(C2O)OC3C(OC(C(C3O)NC(=O)C)OC4C(OC(C(C4O)NC(=O)C)NC(=O)CC(C(=O)N)NC(=O)C)CO)CO)CO)O)O

>  <PUBCHEM_OPENEYE_ISO_SMILES>  (1) 
CC(=O)NC1C(CC(OC1C(C(CO)O)O)(C(=O)O)OC2C(C(OC(C2O)OC3C(OC(C(C3O)NC(=O)C)OC4C(OC(C(C4O)NC(=O)C)NC(=O)CC(C(=O)N)NC(=O)C)CO)CO)CO)O)O

>  <PUBCHEM_CACTVS_TPSA>  (1) 
513

>  <PUBCHEM_MONOISOTOPIC_WEIGHT>  (1) 
1032.387026

>  <PUBCHEM_TOTAL_CHARGE>  (1) 
0

>  <PUBCHEM_HEAVY_ATOM_COUNT>  (1) 
71

>  <PUBCHEM_ATOM_DEF_STEREO_COUNT>  (1) 
0

>  <PUBCHEM_ATOM_UDEF_STEREO_COUNT>  (1) 
22

>  <PUBCHEM_BOND_DEF_STEREO_COUNT>  (1) 
0

>  <PUBCHEM_BOND_UDEF_STEREO_COUNT>  (1) 
0

>  <PUBCHEM_ISOTOPIC_ATOM_COUNT>  (1) 
0

>  <PUBCHEM_COMPONENT_COUNT>  (1) 
1

>  <PUBCHEM_CACTVS_TAUTO_COUNT>  (1) 
-1

>  <PUBCHEM_COORDINATE_TYPE>  (1) 
1
5
255

>  <PUBCHEM_BONDANNOTATIONS>  (1) 
34  1  3
44  10  3
46  11  3
49  12  3
52  13  3
57  17  3
33  2  3
39  2  3
36  27  3
42  28  3
51  29  3
43  3  3
53  30  3
37  56  3
41  54  3
48  55  3
40  5  3
47  5  3
50  58  3
68  66  3
35  8  3
38  9  3

$$$$
