212
     RDKit          2D

 24 26  0  0  1  0  0  0  0  0999 V2000
    4.7576    2.0921    0.0000 P   0  0  0  0  0  0  0  0  0  0  0  0
    0.8757   -0.4359    0.0000 O   0  0  0  0  0  0  0  0  0  0  0  0
    0.1455   -4.2481    0.0000 O   0  0  0  0  0  0  0  0  0  0  0  0
    3.3117   -3.4577    0.0000 O   0  0  0  0  0  0  0  0  0  0  0  0
    3.4857    1.2968    0.0000 O   0  0  0  0  0  0  0  0  0  0  0  0
    5.5528    0.8202    0.0000 O   0  0  0  0  0  0  0  0  0  0  0  0
    6.0294    2.8873    0.0000 O   0  0  0  0  0  0  0  0  0  0  0  0
    3.9623    3.3639    0.0000 O   0  0  0  0  0  0  0  0  0  0  0  0
   -1.5845   -1.4811    0.0000 N   0  0  0  0  0  0  0  0  0  0  0  0
   -3.9393   -2.0689    0.0000 N   0  0  0  0  0  0  0  0  0  0  0  0
   -0.0882   -1.5853    0.0000 C   0  0  0  0  0  0  0  0  0  0  0  0
    0.7071   -2.8571    0.0000 C   0  0  0  0  0  0  0  0  0  0  0  0
    2.1624   -2.4938    0.0000 C   0  0  0  0  0  0  0  0  0  0  0  0
    2.2666   -0.9975    0.0000 C   0  0  0  0  0  0  0  0  0  0  0  0
    3.5385   -0.2022    0.0000 C   0  0  0  0  0  0  0  0  0  0  0  0
   -2.3798   -0.2092    0.0000 C   0  0  0  0  0  0  0  0  0  0  0  0
   -2.5484   -2.6304    0.0000 C   0  0  0  0  0  0  0  0  0  0  0  0
   -3.8351   -0.5725    0.0000 C   0  0  0  0  0  0  0  0  0  0  0  0
   -1.9667    1.2328    0.0000 C   0  0  0  0  0  0  0  0  0  0  0  0
   -3.0090    2.3115    0.0000 C   0  0  0  0  0  0  0  0  0  0  0  0
   -4.8774    0.5062    0.0000 C   0  0  0  0  0  0  0  0  0  0  0  0
   -4.4644    1.9482    0.0000 C   0  0  0  0  0  0  0  0  0  0  0  0
   -2.5960    3.7535    0.0000 C   0  0  0  0  0  0  0  0  0  0  0  0
   -5.5066    3.0269    0.0000 C   0  0  0  0  0  0  0  0  0  0  0  0
  1  5  1  0
  1  6  1  0
  1  7  1  0
  1  8  2  0
  2 11  1  0
  2 14  1  0
  3 12  1  0
  4 13  1  0
  5 15  1  0
  9 11  1  0
  9 16  1  0
  9 17  1  0
 10 17  2  0
 10 18  1  0
 11 12  1  0
 12 13  1  0
 13 14  1  0
 14 15  1  0
 16 18  2  0
 16 19  1  0
 18 21  1  0
 19 20  2  0
 20 22  1  0
 20 23  1  0
 21 22  2  0
 22 24  1  0
M  END
>  <PUBCHEM_COMPOUND_CID>  (1) 
212

>  <PUBCHEM_COMPOUND_CANONICALIZED>  (1) 
1

>  <PUBCHEM_CACTVS_COMPLEXITY>  (1) 
504

>  <PUBCHEM_CACTVS_HBOND_ACCEPTOR>  (1) 
8

>  <PUBCHEM_CACTVS_HBOND_DONOR>  (1) 
4

>  <PUBCHEM_CACTVS_ROTATABLE_BOND>  (1) 
4

>  <PUBCHEM_CACTVS_SUBSKEYS>  (1) 
AAADceBzOAIAAAAAAAAAAAAAAAAAAWJAAAAwAAAAAAAAAFgB8AAAHgAACCAADBzhngY30LcMFxCgQyRjZICCgC0xEqAB2CA4dJiLeKLAmZGeYAhvgALbyCfwsIIOiAAAQAAQACAQAACAACAAQAAAAAAAAA==

>  <PUBCHEM_IUPAC_OPENEYE_NAME>  (1) 
[5-(5,6-dimethylbenzimidazol-1-yl)-3,4-dihydroxy-tetrahydrofuran-2-yl]methyl dihydrogen phosphate

>  <PUBCHEM_IUPAC_CAS_NAME>  (1) 
[5-(5,6-dimethyl-1-benzimidazolyl)-3,4-dihydroxy-2-oxolanyl]methyl dihydrogen phosphate

>  <PUBCHEM_IUPAC_NAME_MARKUP>  (1) 
[5-(5,6-dimethylbenzimidazol-1-yl)-3,4-dihydroxyoxolan-2-yl]methyl dihydrogen phosphate

>  <PUBCHEM_IUPAC_NAME>  (1) 
[5-(5,6-dimethylbenzimidazol-1-yl)-3,4-dihydroxyoxolan-2-yl]methyl dihydrogen phosphate

>  <PUBCHEM_IUPAC_SYSTEMATIC_NAME>  (1) 
[5-(5,6-dimethylbenzimidazol-1-yl)-3,4-bis(oxidanyl)oxolan-2-yl]methyl dihydrogen phosphate

>  <PUBCHEM_IUPAC_TRADITIONAL_NAME>  (1) 
[5-(5,6-dimethylbenzimidazol-1-yl)-3,4-dihydroxy-tetrahydrofuran-2-yl]methyl dihydrogen phosphate

>  <PUBCHEM_IUPAC_INCHI>  (1) 
InChI=1S/C14H19N2O7P/c1-7-3-9-10(4-8(7)2)16(6-15-9)14-13(18)12(17)11(23-14)5-22-24(19,20)21/h3-4,6,11-14,17-18H,5H2,1-2H3,(H2,19,20,21)

>  <PUBCHEM_IUPAC_INCHIKEY>  (1) 
ZMRGXEJKZPRBPJ-UHFFFAOYSA-N

>  <PUBCHEM_XLOGP3_AA>  (1) 
-1.1

>  <PUBCHEM_EXACT_MASS>  (1) 
358.092988

>  <PUBCHEM_MOLECULAR_FORMULA>  (1) 
C14H19N2O7P

>  <PUBCHEM_MOLECULAR_WEIGHT>  (1) 
358.28

>  <PUBCHEM_OPENEYE_CAN_SMILES>  (1) 
CC1=CC2=C(C=C1C)N(C=N2)C3C(C(C(O3)COP(=O)(O)O)O)O

>  <PUBCHEM_OPENEYE_ISO_SMILES>  (1) 
CC1=CC2=C(C=C1C)N(C=N2)C3C(C(C(O3)COP(=O)(O)O)O)O

>  <PUBCHEM_CACTVS_TPSA>  (1) 
134

>  <PUBCHEM_MONOISOTOPIC_WEIGHT>  (1) 
358.092988

>  <PUBCHEM_TOTAL_CHARGE>  (1) 
0

>  <PUBCHEM_HEAVY_ATOM_COUNT>  (1) 
24

>  <PUBCHEM_ATOM_DEF_STEREO_COUNT>  (1) 
0

>  <PUBCHEM_ATOM_UDEF_STEREO_COUNT>  (1) 
4

>  <PUBCHEM_BOND_DEF_STEREO_COUNT>  (1) 
0

>  <PUBCHEM_BOND_UDEF_STEREO_COUNT>  (1) 
0

>  <PUBCHEM_ISOTOPIC_ATOM_COUNT>  (1) 
0

>  <PUBCHEM_COMPONENT_COUNT>  (1) 
1

>  <PUBCHEM_CACTVS_TAUTO_COUNT>  (1) 
-1

>  <PUBCHEM_COORDINATE_TYPE>  (1) 
1
5
255

>  <PUBCHEM_BONDANNOTATIONS>  (1) 
10  17  8
10  18  8
14  15  3
16  18  8
16  19  8
18  21  8
19  20  8
20  22  8
21  22  8
12  3  3
13  4  3
11  9  3
9  16  8
9  17  8

$$$$
