216
     RDKit          2D

 14 14  0  0  0  0  0  0  0  0999 V2000
   -3.4155    0.2352    0.0000 P   0  0  0  0  0  0  0  0  0  0  0  0
   -1.9563    0.5830    0.0000 O   0  0  0  0  0  0  0  0  0  0  0  0
   -3.0677   -1.2239    0.0000 O   0  0  0  0  0  0  0  0  0  0  0  0
   -4.8746   -0.1125    0.0000 O   0  0  0  0  0  0  0  0  0  0  0  0
   -3.7632    1.6944    0.0000 O   0  0  0  0  0  0  0  0  0  0  0  0
    3.0234   -0.9010    0.0000 N   0  0  0  0  0  0  0  0  0  0  0  0
    2.4211    1.6263    0.0000 N   0  0  0  0  0  0  0  0  0  0  0  0
    1.1359   -2.6863    0.0000 N   0  0  0  0  0  0  0  0  0  0  0  0
    0.5335   -0.1590    0.0000 C   0  0  0  0  0  0  0  0  0  0  0  0
   -0.9256   -0.5068    0.0000 C   0  0  0  0  0  0  0  0  0  0  0  0
    1.5643   -1.2488    0.0000 C   0  0  0  0  0  0  0  0  0  0  0  0
    0.9619    1.2785    0.0000 C   0  0  0  0  0  0  0  0  0  0  0  0
    3.4518    0.5365    0.0000 C   0  0  0  0  0  0  0  0  0  0  0  0
    4.9109    0.8843    0.0000 C   0  0  0  0  0  0  0  0  0  0  0  0
  1  2  1  0
  1  3  1  0
  1  4  1  0
  1  5  2  0
  2 10  1  0
  6 11  2  0
  6 13  1  0
  7 12  1  0
  7 13  2  0
  8 11  1  0
  9 10  1  0
  9 11  1  0
  9 12  2  0
 13 14  1  0
M  END
>  <PUBCHEM_COMPOUND_CID>  (1) 
216

>  <PUBCHEM_COMPOUND_CANONICALIZED>  (1) 
1

>  <PUBCHEM_CACTVS_COMPLEXITY>  (1) 
233

>  <PUBCHEM_CACTVS_HBOND_ACCEPTOR>  (1) 
7

>  <PUBCHEM_CACTVS_HBOND_DONOR>  (1) 
3

>  <PUBCHEM_CACTVS_ROTATABLE_BOND>  (1) 
3

>  <PUBCHEM_CACTVS_SUBSKEYS>  (1) 
AAADccBjOAIAAAAAAAAAAAAAAAAAAAAAAAAsAAAAAAAAAAABgAAAHgAQCCAADADhmwYvsJZIERCgQhJnZICAgCkRAKABUCA4TBCADIBASUAEBAgKAALAACAAAAAAAAAAAAAAAAAAAAAAAAAAAAAAAAAAAA==

>  <PUBCHEM_IUPAC_OPENEYE_NAME>  (1) 
(4-amino-2-methyl-pyrimidin-5-yl)methyl dihydrogen phosphate

>  <PUBCHEM_IUPAC_CAS_NAME>  (1) 
(4-amino-2-methyl-5-pyrimidinyl)methyl dihydrogen phosphate

>  <PUBCHEM_IUPAC_NAME_MARKUP>  (1) 
(4-amino-2-methylpyrimidin-5-yl)methyl dihydrogen phosphate

>  <PUBCHEM_IUPAC_NAME>  (1) 
(4-amino-2-methylpyrimidin-5-yl)methyl dihydrogen phosphate

>  <PUBCHEM_IUPAC_SYSTEMATIC_NAME>  (1) 
(4-azanyl-2-methyl-pyrimidin-5-yl)methyl dihydrogen phosphate

>  <PUBCHEM_IUPAC_TRADITIONAL_NAME>  (1) 
(4-amino-2-methyl-pyrimidin-5-yl)methyl dihydrogen phosphate

>  <PUBCHEM_IUPAC_INCHI>  (1) 
InChI=1S/C6H10N3O4P/c1-4-8-2-5(6(7)9-4)3-13-14(10,11)12/h2H,3H2,1H3,(H2,7,8,9)(H2,10,11,12)

>  <PUBCHEM_IUPAC_INCHIKEY>  (1) 
PKYFHKIYHBRTPI-UHFFFAOYSA-N

>  <PUBCHEM_XLOGP3_AA>  (1) 
-1.7

>  <PUBCHEM_EXACT_MASS>  (1) 
219.040893

>  <PUBCHEM_MOLECULAR_FORMULA>  (1) 
C6H10N3O4P

>  <PUBCHEM_MOLECULAR_WEIGHT>  (1) 
219.14

>  <PUBCHEM_OPENEYE_CAN_SMILES>  (1) 
CC1=NC=C(C(=N1)N)COP(=O)(O)O

>  <PUBCHEM_OPENEYE_ISO_SMILES>  (1) 
CC1=NC=C(C(=N1)N)COP(=O)(O)O

>  <PUBCHEM_CACTVS_TPSA>  (1) 
119

>  <PUBCHEM_MONOISOTOPIC_WEIGHT>  (1) 
219.040893

>  <PUBCHEM_TOTAL_CHARGE>  (1) 
0

>  <PUBCHEM_HEAVY_ATOM_COUNT>  (1) 
14

>  <PUBCHEM_ATOM_DEF_STEREO_COUNT>  (1) 
0

>  <PUBCHEM_ATOM_UDEF_STEREO_COUNT>  (1) 
0

>  <PUBCHEM_BOND_DEF_STEREO_COUNT>  (1) 
0

>  <PUBCHEM_BOND_UDEF_STEREO_COUNT>  (1) 
0

>  <PUBCHEM_ISOTOPIC_ATOM_COUNT>  (1) 
0

>  <PUBCHEM_COMPONENT_COUNT>  (1) 
1

>  <PUBCHEM_CACTVS_TAUTO_COUNT>  (1) 
-1

>  <PUBCHEM_COORDINATE_TYPE>  (1) 
1
5
255

>  <PUBCHEM_BONDANNOTATIONS>  (1) 
6  11  8
6  13  8
7  12  8
7  13  8
9  11  8
9  12  8

$$$$
