217
     RDKit          2D

 18 18  0  0  1  0  0  0  0  0999 V2000
   -2.0736    1.0166    0.0000 P   0  0  0  0  0  0  0  0  0  0  0  0
   -4.2305   -0.4318    0.0000 P   0  0  0  0  0  0  0  0  0  0  0  0
   -0.5770    1.1182    0.0000 O   0  0  0  0  0  0  0  0  0  0  0  0
   -3.5702    0.9150    0.0000 O   0  0  0  0  0  0  0  0  0  0  0  0
   -2.1752    2.5132    0.0000 O   0  0  0  0  0  0  0  0  0  0  0  0
   -1.9720   -0.4799    0.0000 O   0  0  0  0  0  0  0  0  0  0  0  0
   -2.8836   -1.0921    0.0000 O   0  0  0  0  0  0  0  0  0  0  0  0
   -4.8908   -1.7787    0.0000 O   0  0  0  0  0  0  0  0  0  0  0  0
   -5.5773    0.2285    0.0000 O   0  0  0  0  0  0  0  0  0  0  0  0
    4.0886   -1.1692    0.0000 N   0  0  0  0  0  0  0  0  0  0  0  0
    3.9126    1.4229    0.0000 N   0  0  0  0  0  0  0  0  0  0  0  0
    1.9317   -2.6176    0.0000 N   0  0  0  0  0  0  0  0  0  0  0  0
    1.7558   -0.0255    0.0000 C   0  0  0  0  0  0  0  0  0  0  0  0
    0.2592   -0.1271    0.0000 C   0  0  0  0  0  0  0  0  0  0  0  0
    2.5920   -1.2708    0.0000 C   0  0  0  0  0  0  0  0  0  0  0  0
    2.4161    1.3214    0.0000 C   0  0  0  0  0  0  0  0  0  0  0  0
    4.7489    0.1777    0.0000 C   0  0  0  0  0  0  0  0  0  0  0  0
    6.2454    0.2792    0.0000 C   0  0  0  0  0  0  0  0  0  0  0  0
  1  3  1  0
  1  4  1  0
  1  5  1  0
  1  6  2  0
  2  4  1  0
  2  7  1  0
  2  8  1  0
  2  9  2  0
  3 14  1  0
 10 15  2  0
 10 17  1  0
 11 16  1  0
 11 17  2  0
 12 15  1  0
 13 14  1  0
 13 15  1  0
 13 16  2  0
 17 18  1  0
M  END
>  <PUBCHEM_COMPOUND_CID>  (1) 
217

>  <PUBCHEM_COMPOUND_CANONICALIZED>  (1) 
1

>  <PUBCHEM_CACTVS_COMPLEXITY>  (1) 
374

>  <PUBCHEM_CACTVS_HBOND_ACCEPTOR>  (1) 
10

>  <PUBCHEM_CACTVS_HBOND_DONOR>  (1) 
4

>  <PUBCHEM_CACTVS_ROTATABLE_BOND>  (1) 
5

>  <PUBCHEM_CACTVS_SUBSKEYS>  (1) 
AAADccBjOAMAAAAAAAAAAAAAAAAAAAAAAAAsAAAAAAAAAAABgAAAHgAQCCAADADhmwYvsJZIERCgQhJnZICAgCkRAKABUCA4TBCADIBASUAEBAgKAALAACAAAAAAAAAAAAAAAAAAAAAAAAAAAAAAAAAAAA==

>  <PUBCHEM_IUPAC_OPENEYE_NAME>  (1) 
(4-amino-2-methyl-pyrimidin-5-yl)methyl phosphono hydrogen phosphate

>  <PUBCHEM_IUPAC_CAS_NAME>  (1) 
(4-amino-2-methyl-5-pyrimidinyl)methyl phosphono hydrogen phosphate

>  <PUBCHEM_IUPAC_NAME_MARKUP>  (1) 
(4-amino-2-methylpyrimidin-5-yl)methyl phosphono hydrogen phosphate

>  <PUBCHEM_IUPAC_NAME>  (1) 
(4-amino-2-methylpyrimidin-5-yl)methyl phosphono hydrogen phosphate

>  <PUBCHEM_IUPAC_SYSTEMATIC_NAME>  (1) 
(4-azanyl-2-methyl-pyrimidin-5-yl)methyl phosphono hydrogen phosphate

>  <PUBCHEM_IUPAC_TRADITIONAL_NAME>  (1) 
(4-amino-2-methyl-pyrimidin-5-yl)methyl phosphono hydrogen phosphate

>  <PUBCHEM_IUPAC_INCHI>  (1) 
InChI=1S/C6H11N3O7P2/c1-4-8-2-5(6(7)9-4)3-15-18(13,14)16-17(10,11)12/h2H,3H2,1H3,(H,13,14)(H2,7,8,9)(H2,10,11,12)

>  <PUBCHEM_IUPAC_INCHIKEY>  (1) 
AGQJQCFEPUVXNK-UHFFFAOYSA-N

>  <PUBCHEM_XLOGP3_AA>  (1) 
-2.8

>  <PUBCHEM_EXACT_MASS>  (1) 
299.007224

>  <PUBCHEM_MOLECULAR_FORMULA>  (1) 
C6H11N3O7P2

>  <PUBCHEM_MOLECULAR_WEIGHT>  (1) 
299.12

>  <PUBCHEM_OPENEYE_CAN_SMILES>  (1) 
CC1=NC=C(C(=N1)N)COP(=O)(O)OP(=O)(O)O

>  <PUBCHEM_OPENEYE_ISO_SMILES>  (1) 
CC1=NC=C(C(=N1)N)COP(=O)(O)OP(=O)(O)O

>  <PUBCHEM_CACTVS_TPSA>  (1) 
165

>  <PUBCHEM_MONOISOTOPIC_WEIGHT>  (1) 
299.007224

>  <PUBCHEM_TOTAL_CHARGE>  (1) 
0

>  <PUBCHEM_HEAVY_ATOM_COUNT>  (1) 
18

>  <PUBCHEM_ATOM_DEF_STEREO_COUNT>  (1) 
0

>  <PUBCHEM_ATOM_UDEF_STEREO_COUNT>  (1) 
0

>  <PUBCHEM_BOND_DEF_STEREO_COUNT>  (1) 
0

>  <PUBCHEM_BOND_UDEF_STEREO_COUNT>  (1) 
0

>  <PUBCHEM_ISOTOPIC_ATOM_COUNT>  (1) 
0

>  <PUBCHEM_COMPONENT_COUNT>  (1) 
1

>  <PUBCHEM_CACTVS_TAUTO_COUNT>  (1) 
-1

>  <PUBCHEM_COORDINATE_TYPE>  (1) 
1
5
255

>  <PUBCHEM_BONDANNOTATIONS>  (1) 
10  15  8
10  17  8
11  16  8
11  17  8
13  15  8
13  16  8

$$$$
