22
     RDKit          2D

  9  8  0  0  1  0  0  0  0  0999 V2000
    1.0607    1.7678    0.0000 O   0  0  0  0  0  0  0  0  0  0  0  0
    0.6724   -1.8024    0.0000 O   0  0  0  0  0  0  0  0  0  0  0  0
   -0.6724   -1.8024    0.0000 O   0  0  0  0  0  0  0  0  0  0  0  0
   -2.5095    0.0347    0.0000 O   0  0  0  0  0  0  0  0  0  0  0  0
    0.0000    0.7071    0.0000 C   0  0  0  0  0  0  0  0  0  0  0  0
   -1.0607    1.7678    0.0000 C   0  0  0  0  0  0  0  0  0  0  0  0
    1.0607   -0.3536    0.0000 C   0  0  0  0  0  0  0  0  0  0  0  0
   -1.0607   -0.3536    0.0000 C   0  0  0  0  0  0  0  0  0  0  0  0
    2.5095    0.0347    0.0000 C   0  0  0  0  0  0  0  0  0  0  0  0
  1  5  1  0
  2  7  2  0
  3  8  1  0
  4  8  2  0
  5  6  1  0
  5  7  1  0
  5  8  1  0
  7  9  1  0
M  END
>  <PUBCHEM_COMPOUND_CID>  (1) 
22

>  <PUBCHEM_COMPOUND_CANONICALIZED>  (1) 
1

>  <PUBCHEM_CACTVS_COMPLEXITY>  (1) 
151

>  <PUBCHEM_CACTVS_HBOND_ACCEPTOR>  (1) 
4

>  <PUBCHEM_CACTVS_HBOND_DONOR>  (1) 
2

>  <PUBCHEM_CACTVS_ROTATABLE_BOND>  (1) 
2

>  <PUBCHEM_CACTVS_SUBSKEYS>  (1) 
AAADccBgOAAAAAAAAAAAAAAAAAAAAAAAAAAAAAAAAAAAAAAAAAAAGgAACAAADESAgAACCAAAAgAIAICQCAIAAAAAAAAAAAFAAAABABQIAAAAQAAEIAABAAAAAAAIAAAAAAAAAAAAAAAAAAAAAAAAAAAAAA==

>  <PUBCHEM_IUPAC_OPENEYE_NAME>  (1) 
2-hydroxy-2-methyl-3-oxo-butanoic acid

>  <PUBCHEM_IUPAC_CAS_NAME>  (1) 
2-hydroxy-2-methyl-3-oxobutanoic acid

>  <PUBCHEM_IUPAC_NAME_MARKUP>  (1) 
2-hydroxy-2-methyl-3-oxobutanoic acid

>  <PUBCHEM_IUPAC_NAME>  (1) 
2-hydroxy-2-methyl-3-oxobutanoic acid

>  <PUBCHEM_IUPAC_SYSTEMATIC_NAME>  (1) 
2-methyl-2-oxidanyl-3-oxidanylidene-butanoic acid

>  <PUBCHEM_IUPAC_TRADITIONAL_NAME>  (1) 
2-hydroxy-3-keto-2-methyl-butyric acid

>  <PUBCHEM_IUPAC_INCHI>  (1) 
InChI=1S/C5H8O4/c1-3(6)5(2,9)4(7)8/h9H,1-2H3,(H,7,8)

>  <PUBCHEM_IUPAC_INCHIKEY>  (1) 
NMDWGEGFJUBKLB-UHFFFAOYSA-N

>  <PUBCHEM_XLOGP3_AA>  (1) 
-0.7

>  <PUBCHEM_EXACT_MASS>  (1) 
132.042259

>  <PUBCHEM_MOLECULAR_FORMULA>  (1) 
C5H8O4

>  <PUBCHEM_MOLECULAR_WEIGHT>  (1) 
132.11

>  <PUBCHEM_OPENEYE_CAN_SMILES>  (1) 
CC(=O)C(C)(C(=O)O)O

>  <PUBCHEM_OPENEYE_ISO_SMILES>  (1) 
CC(=O)C(C)(C(=O)O)O

>  <PUBCHEM_CACTVS_TPSA>  (1) 
74.6

>  <PUBCHEM_MONOISOTOPIC_WEIGHT>  (1) 
132.042259

>  <PUBCHEM_TOTAL_CHARGE>  (1) 
0

>  <PUBCHEM_HEAVY_ATOM_COUNT>  (1) 
9

>  <PUBCHEM_ATOM_DEF_STEREO_COUNT>  (1) 
0

>  <PUBCHEM_ATOM_UDEF_STEREO_COUNT>  (1) 
1

>  <PUBCHEM_BOND_DEF_STEREO_COUNT>  (1) 
0

>  <PUBCHEM_BOND_UDEF_STEREO_COUNT>  (1) 
0

>  <PUBCHEM_ISOTOPIC_ATOM_COUNT>  (1) 
0

>  <PUBCHEM_COMPONENT_COUNT>  (1) 
1

>  <PUBCHEM_CACTVS_TAUTO_COUNT>  (1) 
-1

>  <PUBCHEM_COORDINATE_TYPE>  (1) 
1
5
255

>  <PUBCHEM_BONDANNOTATIONS>  (1) 
5  1  3

$$$$
