229
     RDKit          2D

 10 10  0  0  1  0  0  0  0  0999 V2000
   -0.7500   -1.8187    0.0000 O   0  0  0  0  0  0  0  0  0  0  0  0
    1.5000    2.0785    0.0000 O   0  0  0  0  0  0  0  0  0  0  0  0
   -1.5000    2.0785    0.0000 O   0  0  0  0  0  0  0  0  0  0  0  0
    3.0000   -0.5196    0.0000 O   0  0  0  0  0  0  0  0  0  0  0  0
   -3.0000   -0.5196    0.0000 O   0  0  0  0  0  0  0  0  0  0  0  0
    0.7500    0.7794    0.0000 C   0  0  0  0  0  0  0  0  0  0  0  0
   -0.7500    0.7794    0.0000 C   0  0  0  0  0  0  0  0  0  0  0  0
    1.5000   -0.5196    0.0000 C   0  0  0  0  0  0  0  0  0  0  0  0
   -1.5000   -0.5196    0.0000 C   0  0  0  0  0  0  0  0  0  0  0  0
    0.7500   -1.8187    0.0000 C   0  0  0  0  0  0  0  0  0  0  0  0
  1  9  1  0
  1 10  1  0
  2  6  1  0
  3  7  1  0
  4  8  1  0
  5  9  1  0
  6  7  1  0
  6  8  1  0
  7  9  1  0
  8 10  1  0
M  END
>  <PUBCHEM_COMPOUND_CID>  (1) 
229

>  <PUBCHEM_COMPOUND_CANONICALIZED>  (1) 
1

>  <PUBCHEM_CACTVS_COMPLEXITY>  (1) 
117

>  <PUBCHEM_CACTVS_HBOND_ACCEPTOR>  (1) 
5

>  <PUBCHEM_CACTVS_HBOND_DONOR>  (1) 
4

>  <PUBCHEM_CACTVS_ROTATABLE_BOND>  (1) 
0

>  <PUBCHEM_CACTVS_SUBSKEYS>  (1) 
AAADccBgOAAAAAAAAAAAAAAAAAAAAAAAAAAkAAAAAAAAAAAAAAAAGgAACAAACBSwgAMACAAABgAAAAAAAAAAAAAAAAAAAAAAAAAREAIAAAACQAAFAAAHAADAIAAAAAAAAAAAAAAAAAAAAAAAAAAAAAAAAA==

>  <PUBCHEM_IUPAC_OPENEYE_NAME>  (1) 
tetrahydropyran-2,3,4,5-tetrol

>  <PUBCHEM_IUPAC_CAS_NAME>  (1) 
oxane-2,3,4,5-tetrol

>  <PUBCHEM_IUPAC_NAME_MARKUP>  (1) 
oxane-2,3,4,5-tetrol

>  <PUBCHEM_IUPAC_NAME>  (1) 
oxane-2,3,4,5-tetrol

>  <PUBCHEM_IUPAC_SYSTEMATIC_NAME>  (1) 
oxane-2,3,4,5-tetrol

>  <PUBCHEM_IUPAC_TRADITIONAL_NAME>  (1) 
tetrahydropyran-2,3,4,5-tetrol

>  <PUBCHEM_IUPAC_INCHI>  (1) 
InChI=1S/C5H10O5/c6-2-1-10-5(9)4(8)3(2)7/h2-9H,1H2

>  <PUBCHEM_IUPAC_INCHIKEY>  (1) 
SRBFZHDQGSBBOR-UHFFFAOYSA-N

>  <PUBCHEM_XLOGP3_AA>  (1) 
-2.5

>  <PUBCHEM_EXACT_MASS>  (1) 
150.052823

>  <PUBCHEM_MOLECULAR_FORMULA>  (1) 
C5H10O5

>  <PUBCHEM_MOLECULAR_WEIGHT>  (1) 
150.13

>  <PUBCHEM_OPENEYE_CAN_SMILES>  (1) 
C1C(C(C(C(O1)O)O)O)O

>  <PUBCHEM_OPENEYE_ISO_SMILES>  (1) 
C1C(C(C(C(O1)O)O)O)O

>  <PUBCHEM_CACTVS_TPSA>  (1) 
90.2

>  <PUBCHEM_MONOISOTOPIC_WEIGHT>  (1) 
150.052823

>  <PUBCHEM_TOTAL_CHARGE>  (1) 
0

>  <PUBCHEM_HEAVY_ATOM_COUNT>  (1) 
10

>  <PUBCHEM_ATOM_DEF_STEREO_COUNT>  (1) 
0

>  <PUBCHEM_ATOM_UDEF_STEREO_COUNT>  (1) 
4

>  <PUBCHEM_BOND_DEF_STEREO_COUNT>  (1) 
0

>  <PUBCHEM_BOND_UDEF_STEREO_COUNT>  (1) 
0

>  <PUBCHEM_ISOTOPIC_ATOM_COUNT>  (1) 
0

>  <PUBCHEM_COMPONENT_COUNT>  (1) 
1

>  <PUBCHEM_CACTVS_TAUTO_COUNT>  (1) 
-1

>  <PUBCHEM_COORDINATE_TYPE>  (1) 
1
5
255

>  <PUBCHEM_BONDANNOTATIONS>  (1) 
6  2  3
7  3  3
8  4  3
9  5  3

$$$$
