237
     RDKit          2D

 28 30  0  0  1  0  0  0  0  0999 V2000
   -2.4278    4.0655    0.0000 Cl  0  0  0  0  0  0  0  0  0  0  0  0
    6.6041   -1.8864    0.0000 O   0  0  0  0  0  0  0  0  0  0  0  0
   -5.2278   -0.5616    0.0000 N   0  0  0  0  0  0  0  0  0  0  0  0
    1.1969   -1.7750    0.0000 N   0  0  0  0  0  0  0  0  0  0  0  0
    2.5338    2.5218    0.0000 N   0  0  0  0  0  0  0  0  0  0  0  0
   -0.2663   -2.1052    0.0000 C   0  0  0  0  0  0  0  0  0  0  0  0
   -1.2839   -1.0032    0.0000 C   0  0  0  0  0  0  0  0  0  0  0  0
   -2.7471   -1.3334    0.0000 C   0  0  0  0  0  0  0  0  0  0  0  0
   -3.7646   -0.2313    0.0000 C   0  0  0  0  0  0  0  0  0  0  0  0
    1.6425   -0.3427    0.0000 C   0  0  0  0  0  0  0  0  0  0  0  0
   -0.7119   -3.5375    0.0000 C   0  0  0  0  0  0  0  0  0  0  0  0
   -6.2454    0.5405    0.0000 C   0  0  0  0  0  0  0  0  0  0  0  0
   -5.6735   -1.9939    0.0000 C   0  0  0  0  0  0  0  0  0  0  0  0
    3.1057   -0.0125    0.0000 C   0  0  0  0  0  0  0  0  0  0  0  0
    0.6249    0.7593    0.0000 C   0  0  0  0  0  0  0  0  0  0  0  0
    3.5513    1.4198    0.0000 C   0  0  0  0  0  0  0  0  0  0  0  0
    1.0706    2.1916    0.0000 C   0  0  0  0  0  0  0  0  0  0  0  0
   -7.7086    0.2103    0.0000 C   0  0  0  0  0  0  0  0  0  0  0  0
   -7.1367   -2.3241    0.0000 C   0  0  0  0  0  0  0  0  0  0  0  0
    4.1233   -1.1145    0.0000 C   0  0  0  0  0  0  0  0  0  0  0  0
   -0.8382    0.4291    0.0000 C   0  0  0  0  0  0  0  0  0  0  0  0
    5.0145    1.7500    0.0000 C   0  0  0  0  0  0  0  0  0  0  0  0
    0.0530    3.2937    0.0000 C   0  0  0  0  0  0  0  0  0  0  0  0
    5.5865   -0.7843    0.0000 C   0  0  0  0  0  0  0  0  0  0  0  0
    6.0321    0.6480    0.0000 C   0  0  0  0  0  0  0  0  0  0  0  0
   -1.8558    1.5312    0.0000 C   0  0  0  0  0  0  0  0  0  0  0  0
   -1.4102    2.9634    0.0000 C   0  0  0  0  0  0  0  0  0  0  0  0
    6.1585   -3.3187    0.0000 C   0  0  0  0  0  0  0  0  0  0  0  0
  1 27  1  0
  2 24  1  0
  2 28  1  0
  3  9  1  0
  3 12  1  0
  3 13  1  0
  4  6  1  0
  4 10  1  0
  5 16  2  0
  5 17  1  0
  6  7  1  0
  6 11  1  0
  7  8  1  0
  8  9  1  0
 10 14  2  0
 10 15  1  0
 12 18  1  0
 13 19  1  0
 14 16  1  0
 14 20  1  0
 15 17  2  0
 15 21  1  0
 16 22  1  0
 17 23  1  0
 20 24  2  0
 21 26  2  0
 22 25  2  0
 23 27  2  0
 24 25  1  0
 26 27  1  0
M  END
>  <PUBCHEM_COMPOUND_CID>  (1) 
237

>  <PUBCHEM_COMPOUND_CANONICALIZED>  (1) 
1

>  <PUBCHEM_CACTVS_COMPLEXITY>  (1) 
461

>  <PUBCHEM_CACTVS_HBOND_ACCEPTOR>  (1) 
4

>  <PUBCHEM_CACTVS_HBOND_DONOR>  (1) 
1

>  <PUBCHEM_CACTVS_ROTATABLE_BOND>  (1) 
9

>  <PUBCHEM_CACTVS_SUBSKEYS>  (1) 
AAADceB7IAAEAAAAAAAAAAAAAAAAAAAAAAA8YIAAAAAAAACx/AAAHgIQAAAADC7BniYyxvPIFACgAyRiRACCiCAhJyAImKA+bpgMJuLF89uENChk0BHI6AewwPAOBEABAAICAAAIgAIABAQAAAAAAAAAAA==

>  <PUBCHEM_IUPAC_OPENEYE_NAME>  (1) 
N4-(6-chloro-2-methoxy-acridin-9-yl)-N1,N1-diethyl-pentane-1,4-diamine

>  <PUBCHEM_IUPAC_CAS_NAME>  (1) 
N4-(6-chloro-2-methoxy-9-acridinyl)-N1,N1-diethylpentane-1,4-diamine

>  <PUBCHEM_IUPAC_NAME_MARKUP>  (1) 
4-<I>N</I>-(6-chloro-2-methoxyacridin-9-yl)-1-<I>N</I>,1-<I>N</I>-diethylpentane-1,4-diamine

>  <PUBCHEM_IUPAC_NAME>  (1) 
4-N-(6-chloro-2-methoxyacridin-9-yl)-1-N,1-N-diethylpentane-1,4-diamine

>  <PUBCHEM_IUPAC_SYSTEMATIC_NAME>  (1) 
N4-(6-chloranyl-2-methoxy-acridin-9-yl)-N1,N1-diethyl-pentane-1,4-diamine

>  <PUBCHEM_IUPAC_TRADITIONAL_NAME>  (1) 
4-[(6-chloro-2-methoxy-acridin-9-yl)amino]pentyl-diethyl-amine

>  <PUBCHEM_IUPAC_INCHI>  (1) 
InChI=1S/C23H30ClN3O/c1-5-27(6-2)13-7-8-16(3)25-23-19-11-9-17(24)14-22(19)26-21-12-10-18(28-4)15-20(21)23/h9-12,14-16H,5-8,13H2,1-4H3,(H,25,26)

>  <PUBCHEM_IUPAC_INCHIKEY>  (1) 
GPKJTRJOBQGKQK-UHFFFAOYSA-N

>  <PUBCHEM_XLOGP3_AA>  (1) 
6

>  <PUBCHEM_EXACT_MASS>  (1) 
399.20774

>  <PUBCHEM_MOLECULAR_FORMULA>  (1) 
C23H30ClN3O

>  <PUBCHEM_MOLECULAR_WEIGHT>  (1) 
400

>  <PUBCHEM_OPENEYE_CAN_SMILES>  (1) 
CCN(CC)CCCC(C)NC1=C2C=C(C=CC2=NC3=C1C=CC(=C3)Cl)OC

>  <PUBCHEM_OPENEYE_ISO_SMILES>  (1) 
CCN(CC)CCCC(C)NC1=C2C=C(C=CC2=NC3=C1C=CC(=C3)Cl)OC

>  <PUBCHEM_CACTVS_TPSA>  (1) 
37.4

>  <PUBCHEM_MONOISOTOPIC_WEIGHT>  (1) 
399.20774

>  <PUBCHEM_TOTAL_CHARGE>  (1) 
0

>  <PUBCHEM_HEAVY_ATOM_COUNT>  (1) 
28

>  <PUBCHEM_ATOM_DEF_STEREO_COUNT>  (1) 
0

>  <PUBCHEM_ATOM_UDEF_STEREO_COUNT>  (1) 
1

>  <PUBCHEM_BOND_DEF_STEREO_COUNT>  (1) 
0

>  <PUBCHEM_BOND_UDEF_STEREO_COUNT>  (1) 
0

>  <PUBCHEM_ISOTOPIC_ATOM_COUNT>  (1) 
0

>  <PUBCHEM_COMPONENT_COUNT>  (1) 
1

>  <PUBCHEM_CACTVS_TAUTO_COUNT>  (1) 
-1

>  <PUBCHEM_COORDINATE_TYPE>  (1) 
1
5
255

>  <PUBCHEM_BONDANNOTATIONS>  (1) 
10  14  8
10  15  8
14  16  8
14  20  8
15  17  8
15  21  8
16  22  8
17  23  8
20  24  8
21  26  8
22  25  8
23  27  8
24  25  8
26  27  8
5  16  8
5  17  8
6  11  3

$$$$
