238
     RDKit          2D

 31 33  0  0  1  0  0  0  0  0999 V2000
   -2.8270   -1.7518    0.0000 P   0  0  0  0  0  0  0  0  0  0  0  0
   -5.4139   -1.5113    0.0000 P   0  0  0  0  0  0  0  0  0  0  0  0
   -6.4991    0.8493    0.0000 P   0  0  0  0  0  0  0  0  0  0  0  0
    1.3456    0.2605    0.0000 O   0  0  0  0  0  0  0  0  0  0  0  0
    2.5559    3.9484    0.0000 O   0  0  0  0  0  0  0  0  0  0  0  0
   -0.6852    3.5683    0.0000 O   0  0  0  0  0  0  0  0  0  0  0  0
   -1.4641   -1.1253    0.0000 O   0  0  0  0  0  0  0  0  0  0  0  0
   -4.1899   -2.3783    0.0000 O   0  0  0  0  0  0  0  0  0  0  0  0
   -2.2004   -3.1147    0.0000 O   0  0  0  0  0  0  0  0  0  0  0  0
   -3.4535   -0.3889    0.0000 O   0  0  0  0  0  0  0  0  0  0  0  0
   -6.6380   -0.6443    0.0000 O   0  0  0  0  0  0  0  0  0  0  0  0
   -4.5469   -0.2873    0.0000 O   0  0  0  0  0  0  0  0  0  0  0  0
   -6.2809   -2.7354    0.0000 O   0  0  0  0  0  0  0  0  0  0  0  0
   -5.0056    0.7104    0.0000 O   0  0  0  0  0  0  0  0  0  0  0  0
   -6.3603    2.3428    0.0000 O   0  0  0  0  0  0  0  0  0  0  0  0
   -7.9927    0.9881    0.0000 O   0  0  0  0  0  0  0  0  0  0  0  0
    3.9190    0.9833    0.0000 N   0  0  0  0  0  0  0  0  0  0  0  0
    6.3295    1.2661    0.0000 N   0  0  0  0  0  0  0  0  0  0  0  0
    3.9520   -1.7571    0.0000 N   0  0  0  0  0  0  0  0  0  0  0  0
    6.3380   -2.7852    0.0000 N   0  0  0  0  0  0  0  0  0  0  0  0
    8.4213   -1.2329    0.0000 N   0  0  0  0  0  0  0  0  0  0  0  0
    1.8216    2.6404    0.0000 C   0  0  0  0  0  0  0  0  0  0  0  0
    0.3318    2.4657    0.0000 C   0  0  0  0  0  0  0  0  0  0  0  0
    2.4481    1.2775    0.0000 C   0  0  0  0  0  0  0  0  0  0  0  0
    0.0376    0.9948    0.0000 C   0  0  0  0  0  0  0  0  0  0  0  0
   -1.3253    0.3683    0.0000 C   0  0  0  0  0  0  0  0  0  0  0  0
    4.5456   -0.3795    0.0000 C   0  0  0  0  0  0  0  0  0  0  0  0
    5.0216    2.0004    0.0000 C   0  0  0  0  0  0  0  0  0  0  0  0
    6.0353   -0.2048    0.0000 C   0  0  0  0  0  0  0  0  0  0  0  0
    6.9315   -1.4076    0.0000 C   0  0  0  0  0  0  0  0  0  0  0  0
    4.8482   -2.9599    0.0000 C   0  0  0  0  0  0  0  0  0  0  0  0
  1  7  1  0
  1  8  1  0
  1  9  1  0
  1 10  2  0
  2  8  1  0
  2 11  1  0
  2 12  1  0
  2 13  2  0
  3 11  1  0
  3 14  1  0
  3 15  1  0
  3 16  2  0
  4 24  1  0
  4 25  1  0
  5 22  1  0
  6 23  1  0
  7 26  1  0
 17 24  1  0
 17 27  1  0
 17 28  1  0
 18 28  2  0
 18 29  1  0
 19 27  1  0
 19 31  2  0
 20 30  2  0
 20 31  1  0
 21 30  1  0
 22 23  1  0
 22 24  1  0
 23 25  1  0
 25 26  1  0
 27 29  2  0
 29 30  1  0
M  END
>  <PUBCHEM_COMPOUND_CID>  (1) 
238

>  <PUBCHEM_COMPOUND_CANONICALIZED>  (1) 
1

>  <PUBCHEM_CACTVS_COMPLEXITY>  (1) 
800

>  <PUBCHEM_CACTVS_HBOND_ACCEPTOR>  (1) 
17

>  <PUBCHEM_CACTVS_HBOND_DONOR>  (1) 
7

>  <PUBCHEM_CACTVS_ROTATABLE_BOND>  (1) 
8

>  <PUBCHEM_CACTVS_SUBSKEYS>  (1) 
AAADceBzvAMAAAAAAAAAAAAAAAAAAWJAAAAsAAAAAAAAAFgB+AAAHgAQCCAACBzhlwYF8L9MFxCgQQZhZICAgC0REKABUCAoVBCDWAJAyEAeRAgPAALTACDwMAIAAAAAAAAAAAAAAAAAAAAAAAAAAAAAAA==

>  <PUBCHEM_IUPAC_OPENEYE_NAME>  (1) 
[[5-(6-aminopurin-9-yl)-3,4-dihydroxy-tetrahydrofuran-2-yl]methoxy-hydroxy-phosphoryl] phosphono hydrogen phosphate

>  <PUBCHEM_IUPAC_CAS_NAME>  (1) 
[[5-(6-aminopurin-9-yl)-3,4-dihydroxy-2-oxolanyl]methoxy-hydroxyphosphoryl] phosphono hydrogen phosphate

>  <PUBCHEM_IUPAC_NAME_MARKUP>  (1) 
[[5-(6-aminopurin-9-yl)-3,4-dihydroxyoxolan-2-yl]methoxy-hydroxyphosphoryl] phosphono hydrogen phosphate

>  <PUBCHEM_IUPAC_NAME>  (1) 
[[5-(6-aminopurin-9-yl)-3,4-dihydroxyoxolan-2-yl]methoxy-hydroxyphosphoryl] phosphono hydrogen phosphate

>  <PUBCHEM_IUPAC_SYSTEMATIC_NAME>  (1) 
[[5-(6-aminopurin-9-yl)-3,4-bis(oxidanyl)oxolan-2-yl]methoxy-oxidanyl-phosphoryl] phosphono hydrogen phosphate

>  <PUBCHEM_IUPAC_TRADITIONAL_NAME>  (1) 
[(5-adenin-9-yl-3,4-dihydroxy-tetrahydrofuran-2-yl)methoxy-hydroxy-phosphoryl] phosphono hydrogen phosphate

>  <PUBCHEM_IUPAC_INCHI>  (1) 
InChI=1S/C10H16N5O13P3/c11-8-5-9(13-2-12-8)15(3-14-5)10-7(17)6(16)4(26-10)1-25-30(21,22)28-31(23,24)27-29(18,19)20/h2-4,6-7,10,16-17H,1H2,(H,21,22)(H,23,24)(H2,11,12,13)(H2,18,19,20)

>  <PUBCHEM_IUPAC_INCHIKEY>  (1) 
ZKHQWZAMYRWXGA-UHFFFAOYSA-N

>  <PUBCHEM_XLOGP3>  (1) 
-5.7

>  <PUBCHEM_EXACT_MASS>  (1) 
506.995747

>  <PUBCHEM_MOLECULAR_FORMULA>  (1) 
C10H16N5O13P3

>  <PUBCHEM_MOLECULAR_WEIGHT>  (1) 
507.18

>  <PUBCHEM_OPENEYE_CAN_SMILES>  (1) 
C1=NC(=C2C(=N1)N(C=N2)C3C(C(C(O3)COP(=O)(O)OP(=O)(O)OP(=O)(O)O)O)O)N

>  <PUBCHEM_OPENEYE_ISO_SMILES>  (1) 
C1=NC(=C2C(=N1)N(C=N2)C3C(C(C(O3)COP(=O)(O)OP(=O)(O)OP(=O)(O)O)O)O)N

>  <PUBCHEM_CACTVS_TPSA>  (1) 
279

>  <PUBCHEM_MONOISOTOPIC_WEIGHT>  (1) 
506.995747

>  <PUBCHEM_TOTAL_CHARGE>  (1) 
0

>  <PUBCHEM_HEAVY_ATOM_COUNT>  (1) 
31

>  <PUBCHEM_ATOM_DEF_STEREO_COUNT>  (1) 
0

>  <PUBCHEM_ATOM_UDEF_STEREO_COUNT>  (1) 
4

>  <PUBCHEM_BOND_DEF_STEREO_COUNT>  (1) 
0

>  <PUBCHEM_BOND_UDEF_STEREO_COUNT>  (1) 
0

>  <PUBCHEM_ISOTOPIC_ATOM_COUNT>  (1) 
0

>  <PUBCHEM_COMPONENT_COUNT>  (1) 
1

>  <PUBCHEM_CACTVS_TAUTO_COUNT>  (1) 
-1

>  <PUBCHEM_COORDINATE_TYPE>  (1) 
1
5
255

>  <PUBCHEM_BONDANNOTATIONS>  (1) 
24  17  3
17  27  8
17  28  8
18  28  8
18  29  8
19  27  8
19  31  8
20  30  8
20  31  8
25  26  3
27  29  8
29  30  8
22  5  3
23  6  3

$$$$
