239
     RDKit          2D

  6  5  0  0  0  0  0  0  0  0999 V2000
    2.2689    0.9563    0.0000 O   0  0  0  0  0  0  0  0  0  0  0  0
    1.3020   -1.4551    0.0000 O   0  0  0  0  0  0  0  0  0  0  0  0
   -2.8748    0.2197    0.0000 N   0  0  0  0  0  0  0  0  0  0  0  0
   -0.3029    0.5880    0.0000 C   0  0  0  0  0  0  0  0  0  0  0  0
   -1.4825   -0.3386    0.0000 C   0  0  0  0  0  0  0  0  0  0  0  0
    1.0893    0.0297    0.0000 C   0  0  0  0  0  0  0  0  0  0  0  0
  1  6  1  0
  2  6  2  0
  3  5  1  0
  4  5  1  0
  4  6  1  0
M  END
>  <PUBCHEM_COMPOUND_CID>  (1) 
239

>  <PUBCHEM_COMPOUND_CANONICALIZED>  (1) 
1

>  <PUBCHEM_CACTVS_COMPLEXITY>  (1) 
52.8

>  <PUBCHEM_CACTVS_HBOND_ACCEPTOR>  (1) 
3

>  <PUBCHEM_CACTVS_HBOND_DONOR>  (1) 
2

>  <PUBCHEM_CACTVS_ROTATABLE_BOND>  (1) 
2

>  <PUBCHEM_CACTVS_SUBSKEYS>  (1) 
AAADcYBCMAAAAAAAAAAAAAAAAAAAAAAAAAAAAAAAAAAAAAAAAAAAHgAQCAAACADBgAQACABAAgAIAACQCAAAAAAAAAAAAIEAAAAAAAgAAAAAQAACEAAAAAAAAAAAAAAAAAAAAAAAAAAAAAAAAAAAAAAAAA==

>  <PUBCHEM_IUPAC_OPENEYE_NAME>  (1) 
3-aminopropanoic acid

>  <PUBCHEM_IUPAC_CAS_NAME>  (1) 
3-aminopropanoic acid

>  <PUBCHEM_IUPAC_NAME_MARKUP>  (1) 
3-aminopropanoic acid

>  <PUBCHEM_IUPAC_NAME>  (1) 
3-aminopropanoic acid

>  <PUBCHEM_IUPAC_SYSTEMATIC_NAME>  (1) 
3-azanylpropanoic acid

>  <PUBCHEM_IUPAC_TRADITIONAL_NAME>  (1) 
3-aminopropionic acid

>  <PUBCHEM_IUPAC_INCHI>  (1) 
InChI=1S/C3H7NO2/c4-2-1-3(5)6/h1-2,4H2,(H,5,6)

>  <PUBCHEM_IUPAC_INCHIKEY>  (1) 
UCMIRNVEIXFBKS-UHFFFAOYSA-N

>  <PUBCHEM_XLOGP3>  (1) 
-3

>  <PUBCHEM_EXACT_MASS>  (1) 
89.047678

>  <PUBCHEM_MOLECULAR_FORMULA>  (1) 
C3H7NO2

>  <PUBCHEM_MOLECULAR_WEIGHT>  (1) 
89.09

>  <PUBCHEM_OPENEYE_CAN_SMILES>  (1) 
C(CN)C(=O)O

>  <PUBCHEM_OPENEYE_ISO_SMILES>  (1) 
C(CN)C(=O)O

>  <PUBCHEM_CACTVS_TPSA>  (1) 
63.3

>  <PUBCHEM_MONOISOTOPIC_WEIGHT>  (1) 
89.047678

>  <PUBCHEM_TOTAL_CHARGE>  (1) 
0

>  <PUBCHEM_HEAVY_ATOM_COUNT>  (1) 
6

>  <PUBCHEM_ATOM_DEF_STEREO_COUNT>  (1) 
0

>  <PUBCHEM_ATOM_UDEF_STEREO_COUNT>  (1) 
0

>  <PUBCHEM_BOND_DEF_STEREO_COUNT>  (1) 
0

>  <PUBCHEM_BOND_UDEF_STEREO_COUNT>  (1) 
0

>  <PUBCHEM_ISOTOPIC_ATOM_COUNT>  (1) 
0

>  <PUBCHEM_COMPONENT_COUNT>  (1) 
1

>  <PUBCHEM_CACTVS_TAUTO_COUNT>  (1) 
-1

>  <PUBCHEM_COORDINATE_TYPE>  (1) 
1
5
255

$$$$
