246
     RDKit          2D

 25 28  0  0  1  0  0  0  0  0999 V2000
    5.9481   -0.4576    0.0000 S   0  0  0  0  0  0  0  0  0  0  0  0
    5.0208    0.7214    0.0000 O   0  0  0  0  0  0  0  0  0  0  0  0
   -6.3446   -1.6129    0.0000 O   0  0  0  0  0  0  0  0  0  0  0  0
    6.8755   -1.6366    0.0000 O   0  0  0  0  0  0  0  0  0  0  0  0
    4.7692   -1.3849    0.0000 O   0  0  0  0  0  0  0  0  0  0  0  0
    7.1271    0.4698    0.0000 O   0  0  0  0  0  0  0  0  0  0  0  0
   -0.9181   -0.1331    0.0000 C   0  0  0  0  0  0  0  0  0  0  0  0
    0.5667    0.0805    0.0000 C   0  0  0  0  0  0  0  0  0  0  0  0
   -1.8454    1.0458    0.0000 C   0  0  0  0  0  0  0  0  0  0  0  0
   -3.3301    0.8322    0.0000 C   0  0  0  0  0  0  0  0  0  0  0  0
    1.1240    1.4731    0.0000 C   0  0  0  0  0  0  0  0  0  0  0  0
   -3.8875   -0.5604    0.0000 C   0  0  0  0  0  0  0  0  0  0  0  0
   -1.4754   -1.5258    0.0000 C   0  0  0  0  0  0  0  0  0  0  0  0
   -1.2881    2.4384    0.0000 C   0  0  0  0  0  0  0  0  0  0  0  0
    0.1966    2.6521    0.0000 C   0  0  0  0  0  0  0  0  0  0  0  0
   -2.9601   -1.7394    0.0000 C   0  0  0  0  0  0  0  0  0  0  0  0
    1.4940   -1.0985    0.0000 C   0  0  0  0  0  0  0  0  0  0  0  0
   -4.4824    1.7926    0.0000 C   0  0  0  0  0  0  0  0  0  0  0  0
    2.6087    1.6867    0.0000 C   0  0  0  0  0  0  0  0  0  0  0  0
    0.0093   -1.3121    0.0000 C   0  0  0  0  0  0  0  0  0  0  0  0
   -5.3842   -0.4607    0.0000 C   0  0  0  0  0  0  0  0  0  0  0  0
    2.9787   -0.8848    0.0000 C   0  0  0  0  0  0  0  0  0  0  0  0
   -5.7518    0.9936    0.0000 C   0  0  0  0  0  0  0  0  0  0  0  0
    3.5361    0.5078    0.0000 C   0  0  0  0  0  0  0  0  0  0  0  0
   -4.5873   -1.8871    0.0000 C   0  0  0  0  0  0  0  0  0  0  0  0
  1  2  1  0
  1  4  1  0
  1  5  2  0
  1  6  2  0
  2 24  1  0
  3 21  2  0
  7  8  1  0
  7  9  1  0
  7 13  1  0
  8 11  1  0
  8 17  1  0
  8 20  1  0
  9 10  1  0
  9 14  1  0
 10 12  1  0
 10 18  1  0
 11 15  1  0
 11 19  1  0
 12 16  1  0
 12 21  1  0
 12 25  1  0
 13 16  1  0
 14 15  1  0
 17 22  1  0
 18 23  1  0
 19 24  1  0
 21 23  1  0
 22 24  1  0
M  END
>  <PUBCHEM_COMPOUND_CID>  (1) 
246

>  <PUBCHEM_COMPOUND_CANONICALIZED>  (1) 
1

>  <PUBCHEM_CACTVS_COMPLEXITY>  (1) 
668

>  <PUBCHEM_CACTVS_HBOND_ACCEPTOR>  (1) 
5

>  <PUBCHEM_CACTVS_HBOND_DONOR>  (1) 
1

>  <PUBCHEM_CACTVS_ROTATABLE_BOND>  (1) 
2

>  <PUBCHEM_CACTVS_SUBSKEYS>  (1) 
AAADceB4OABAAAAAAAAAAAAAAAAAAYAAAAAwYMAAAAAAAGDAAAAAGgAACAAADxSggAICAAAAAIAIAIAQADAAAAAAAAAAAAEAAAAAABIAAAAAAAAEAAAAAAGIyPCPgAAAAAAAAADAAAYAACAAAAAACAAAAA==

>  <PUBCHEM_IUPAC_OPENEYE_NAME>  (1) 
(10,13-dimethyl-17-oxo-1,2,3,4,5,6,7,8,9,11,12,14,15,16-tetradecahydrocyclopenta[a]phenanthren-3-yl) hydrogen sulfate

>  <PUBCHEM_IUPAC_CAS_NAME>  (1) 
sulfuric acid (10,13-dimethyl-17-oxo-1,2,3,4,5,6,7,8,9,11,12,14,15,16-tetradecahydrocyclopenta[a]phenanthren-3-yl) ester

>  <PUBCHEM_IUPAC_NAME_MARKUP>  (1) 
(10,13-dimethyl-17-oxo-1,2,3,4,5,6,7,8,9,11,12,14,15,16-tetradecahydrocyclopenta[a]phenanthren-3-yl) hydrogen sulfate

>  <PUBCHEM_IUPAC_NAME>  (1) 
(10,13-dimethyl-17-oxo-1,2,3,4,5,6,7,8,9,11,12,14,15,16-tetradecahydrocyclopenta[a]phenanthren-3-yl) hydrogen sulfate

>  <PUBCHEM_IUPAC_SYSTEMATIC_NAME>  (1) 
(10,13-dimethyl-17-oxidanylidene-1,2,3,4,5,6,7,8,9,11,12,14,15,16-tetradecahydrocyclopenta[a]phenanthren-3-yl) hydrogen sulfate

>  <PUBCHEM_IUPAC_TRADITIONAL_NAME>  (1) 
sulfuric acid (17-keto-10,13-dimethyl-1,2,3,4,5,6,7,8,9,11,12,14,15,16-tetradecahydrocyclopenta[a]phenanthren-3-yl) ester

>  <PUBCHEM_IUPAC_INCHI>  (1) 
InChI=1S/C19H30O5S/c1-18-9-7-13(24-25(21,22)23)11-12(18)3-4-14-15-5-6-17(20)19(15,2)10-8-16(14)18/h12-16H,3-11H2,1-2H3,(H,21,22,23)

>  <PUBCHEM_IUPAC_INCHIKEY>  (1) 
ZMITXKRGXGRMKS-UHFFFAOYSA-N

>  <PUBCHEM_XLOGP3>  (1) 
3.3

>  <PUBCHEM_EXACT_MASS>  (1) 
370.181395

>  <PUBCHEM_MOLECULAR_FORMULA>  (1) 
C19H30O5S

>  <PUBCHEM_MOLECULAR_WEIGHT>  (1) 
370.5

>  <PUBCHEM_OPENEYE_CAN_SMILES>  (1) 
CC12CCC(CC1CCC3C2CCC4(C3CCC4=O)C)OS(=O)(=O)O

>  <PUBCHEM_OPENEYE_ISO_SMILES>  (1) 
CC12CCC(CC1CCC3C2CCC4(C3CCC4=O)C)OS(=O)(=O)O

>  <PUBCHEM_CACTVS_TPSA>  (1) 
89

>  <PUBCHEM_MONOISOTOPIC_WEIGHT>  (1) 
370.181395

>  <PUBCHEM_TOTAL_CHARGE>  (1) 
0

>  <PUBCHEM_HEAVY_ATOM_COUNT>  (1) 
25

>  <PUBCHEM_ATOM_DEF_STEREO_COUNT>  (1) 
0

>  <PUBCHEM_ATOM_UDEF_STEREO_COUNT>  (1) 
7

>  <PUBCHEM_BOND_DEF_STEREO_COUNT>  (1) 
0

>  <PUBCHEM_BOND_UDEF_STEREO_COUNT>  (1) 
0

>  <PUBCHEM_ISOTOPIC_ATOM_COUNT>  (1) 
0

>  <PUBCHEM_COMPONENT_COUNT>  (1) 
1

>  <PUBCHEM_CACTVS_TAUTO_COUNT>  (1) 
-1

>  <PUBCHEM_COORDINATE_TYPE>  (1) 
1
5
255

>  <PUBCHEM_BONDANNOTATIONS>  (1) 
10  18  3
11  15  3
12  25  3
24  2  3
7  13  3
8  20  3
9  14  3

$$$$
