247
     RDKit          2D

  8  7  0  0  0  0  0  0  0  0999 V2000
    2.7538    0.8653    0.0000 O   0  0  0  0  0  0  0  0  0  0  0  0
    1.4723   -1.3948    0.0000 O   0  0  0  0  0  0  0  0  0  0  0  0
   -1.1374    0.0849    0.0000 N   0  0  0  0  0  0  0  0  0  0  0  0
    0.1558    0.8450    0.0000 C   0  0  0  0  0  0  0  0  0  0  0  0
   -1.8975    1.3780    0.0000 C   0  0  0  0  0  0  0  0  0  0  0  0
   -0.3772   -1.2083    0.0000 C   0  0  0  0  0  0  0  0  0  0  0  0
   -2.4305   -0.6752    0.0000 C   0  0  0  0  0  0  0  0  0  0  0  0
    1.4606    0.1051    0.0000 C   0  0  0  0  0  0  0  0  0  0  0  0
  1  8  1  0
  2  8  2  0
  3  4  1  0
  3  5  1  0
  3  6  1  0
  3  7  1  0
  4  8  1  0
M  CHG  2   1  -1   3   1
M  END
>  <PUBCHEM_COMPOUND_CID>  (1) 
247

>  <PUBCHEM_COMPOUND_CANONICALIZED>  (1) 
1

>  <PUBCHEM_CACTVS_COMPLEXITY>  (1) 
87.6

>  <PUBCHEM_CACTVS_HBOND_ACCEPTOR>  (1) 
2

>  <PUBCHEM_CACTVS_HBOND_DONOR>  (1) 
0

>  <PUBCHEM_CACTVS_ROTATABLE_BOND>  (1) 
1

>  <PUBCHEM_CACTVS_SUBSKEYS>  (1) 
AAADccBiMAAAAAAAAAAAAAAAAAAAAAAAAAAAAAAAAAAAAAAAAAAAHgAAAAAAAADBgAQCCAMAAAAIAACQCAAAAAAAAAAAAACIAAACAAAAACAAAAAAAAAQAAAAAAAAAAAAAAAAAAAAAAAAAAAAAAAAAAAAAA==

>  <PUBCHEM_IUPAC_OPENEYE_NAME>  (1) 
2-(trimethylammonio)acetate

>  <PUBCHEM_IUPAC_CAS_NAME>  (1) 
2-(trimethylammonio)acetate

>  <PUBCHEM_IUPAC_NAME_MARKUP>  (1) 
2-(trimethylazaniumyl)acetate

>  <PUBCHEM_IUPAC_NAME>  (1) 
2-(trimethylazaniumyl)acetate

>  <PUBCHEM_IUPAC_SYSTEMATIC_NAME>  (1) 
2-(trimethylazaniumyl)ethanoate

>  <PUBCHEM_IUPAC_TRADITIONAL_NAME>  (1) 
2-(trimethylammonio)acetate

>  <PUBCHEM_IUPAC_INCHI>  (1) 
InChI=1S/C5H11NO2/c1-6(2,3)4-5(7)8/h4H2,1-3H3

>  <PUBCHEM_IUPAC_INCHIKEY>  (1) 
KWIUHFFTVRNATP-UHFFFAOYSA-N

>  <PUBCHEM_XLOGP3_AA>  (1) 
0.5

>  <PUBCHEM_EXACT_MASS>  (1) 
117.078979

>  <PUBCHEM_MOLECULAR_FORMULA>  (1) 
C5H11NO2

>  <PUBCHEM_MOLECULAR_WEIGHT>  (1) 
117.15

>  <PUBCHEM_OPENEYE_CAN_SMILES>  (1) 
C[N+](C)(C)CC(=O)[O-]

>  <PUBCHEM_OPENEYE_ISO_SMILES>  (1) 
C[N+](C)(C)CC(=O)[O-]

>  <PUBCHEM_CACTVS_TPSA>  (1) 
40.1

>  <PUBCHEM_MONOISOTOPIC_WEIGHT>  (1) 
117.078979

>  <PUBCHEM_TOTAL_CHARGE>  (1) 
0

>  <PUBCHEM_HEAVY_ATOM_COUNT>  (1) 
8

>  <PUBCHEM_ATOM_DEF_STEREO_COUNT>  (1) 
0

>  <PUBCHEM_ATOM_UDEF_STEREO_COUNT>  (1) 
0

>  <PUBCHEM_BOND_DEF_STEREO_COUNT>  (1) 
0

>  <PUBCHEM_BOND_UDEF_STEREO_COUNT>  (1) 
0

>  <PUBCHEM_ISOTOPIC_ATOM_COUNT>  (1) 
0

>  <PUBCHEM_COMPONENT_COUNT>  (1) 
1

>  <PUBCHEM_CACTVS_TAUTO_COUNT>  (1) 
-1

>  <PUBCHEM_COORDINATE_TYPE>  (1) 
1
5
255

$$$$
