249
     RDKit          2D

  7  6  0  0  0  0  0  0  0  0999 V2000
    3.0300    0.2207    0.0000 O   0  0  0  0  0  0  0  0  0  0  0  0
   -0.9337    0.0239    0.0000 N   0  0  0  0  0  0  0  0  0  0  0  0
    0.4575    0.5845    0.0000 C   0  0  0  0  0  0  0  0  0  0  0  0
   -1.4944    1.4151    0.0000 C   0  0  0  0  0  0  0  0  0  0  0  0
   -0.3731   -1.3674    0.0000 C   0  0  0  0  0  0  0  0  0  0  0  0
   -2.3250   -0.5368    0.0000 C   0  0  0  0  0  0  0  0  0  0  0  0
    1.6387   -0.3400    0.0000 C   0  0  0  0  0  0  0  0  0  0  0  0
  1  7  2  0
  2  3  1  0
  2  4  1  0
  2  5  1  0
  2  6  1  0
  3  7  1  0
M  CHG  1   2   1
M  END
>  <PUBCHEM_COMPOUND_CID>  (1) 
249

>  <PUBCHEM_COMPOUND_CANONICALIZED>  (1) 
1

>  <PUBCHEM_CACTVS_COMPLEXITY>  (1) 
63

>  <PUBCHEM_CACTVS_HBOND_ACCEPTOR>  (1) 
1

>  <PUBCHEM_CACTVS_HBOND_DONOR>  (1) 
0

>  <PUBCHEM_CACTVS_ROTATABLE_BOND>  (1) 
2

>  <PUBCHEM_CACTVS_SUBSKEYS>  (1) 
AAADccBiIAAAAAAAAAAAAAAAAAAAAAAAAAAAAAAAAAAAAAAAAAAAHgAAAAAAAADhgAYCAAMAAAAIAAgQgAAAAAAAAAAAAACIAAAAAAAAACAAAAAAAAAAAAAAAAAAAAAAAAAAAAAAAAAAAAAAAAAAAAAAAA==

>  <PUBCHEM_IUPAC_OPENEYE_NAME>  (1) 
trimethyl(2-oxoethyl)ammonium

>  <PUBCHEM_IUPAC_CAS_NAME>  (1) 
trimethyl(2-oxoethyl)ammonium

>  <PUBCHEM_IUPAC_NAME_MARKUP>  (1) 
trimethyl(2-oxoethyl)azanium

>  <PUBCHEM_IUPAC_NAME>  (1) 
trimethyl(2-oxoethyl)azanium

>  <PUBCHEM_IUPAC_SYSTEMATIC_NAME>  (1) 
trimethyl(2-oxidanylideneethyl)azanium

>  <PUBCHEM_IUPAC_TRADITIONAL_NAME>  (1) 
2-ketoethyl(trimethyl)ammonium

>  <PUBCHEM_IUPAC_INCHI>  (1) 
InChI=1S/C5H12NO/c1-6(2,3)4-5-7/h5H,4H2,1-3H3/q+1

>  <PUBCHEM_IUPAC_INCHIKEY>  (1) 
SXKNCCSPZDCRFD-UHFFFAOYSA-N

>  <PUBCHEM_XLOGP3_AA>  (1) 
-0.2

>  <PUBCHEM_EXACT_MASS>  (1) 
102.091889

>  <PUBCHEM_MOLECULAR_FORMULA>  (1) 
C5H12NO+

>  <PUBCHEM_MOLECULAR_WEIGHT>  (1) 
102.15

>  <PUBCHEM_OPENEYE_CAN_SMILES>  (1) 
C[N+](C)(C)CC=O

>  <PUBCHEM_OPENEYE_ISO_SMILES>  (1) 
C[N+](C)(C)CC=O

>  <PUBCHEM_CACTVS_TPSA>  (1) 
17.1

>  <PUBCHEM_MONOISOTOPIC_WEIGHT>  (1) 
102.091889

>  <PUBCHEM_TOTAL_CHARGE>  (1) 
1

>  <PUBCHEM_HEAVY_ATOM_COUNT>  (1) 
7

>  <PUBCHEM_ATOM_DEF_STEREO_COUNT>  (1) 
0

>  <PUBCHEM_ATOM_UDEF_STEREO_COUNT>  (1) 
0

>  <PUBCHEM_BOND_DEF_STEREO_COUNT>  (1) 
0

>  <PUBCHEM_BOND_UDEF_STEREO_COUNT>  (1) 
0

>  <PUBCHEM_ISOTOPIC_ATOM_COUNT>  (1) 
0

>  <PUBCHEM_COMPONENT_COUNT>  (1) 
1

>  <PUBCHEM_CACTVS_TAUTO_COUNT>  (1) 
-1

>  <PUBCHEM_COORDINATE_TYPE>  (1) 
1
5
255

$$$$
