254
     RDKit          2D

 14 15  0  0  0  0  0  0  0  0999 V2000
    0.7683   -2.1337    0.0000 O   0  0  0  0  0  0  0  0  0  0  0  0
    3.7321   -1.6691    0.0000 O   0  0  0  0  0  0  0  0  0  0  0  0
    0.3659    0.4330    0.0000 C   0  0  0  0  0  0  0  0  0  0  0  0
   -1.1160    0.2007    0.0000 C   0  0  0  0  0  0  0  0  0  0  0  0
    1.3080   -0.7342    0.0000 C   0  0  0  0  0  0  0  0  0  0  0  0
    0.9057    1.8326    0.0000 C   0  0  0  0  0  0  0  0  0  0  0  0
   -2.0581    1.3680    0.0000 C   0  0  0  0  0  0  0  0  0  0  0  0
   -1.6558   -1.1988    0.0000 C   0  0  0  0  0  0  0  0  0  0  0  0
    2.7900   -0.5019    0.0000 C   0  0  0  0  0  0  0  0  0  0  0  0
    2.3876    2.0649    0.0000 C   0  0  0  0  0  0  0  0  0  0  0  0
    3.3297    0.8976    0.0000 C   0  0  0  0  0  0  0  0  0  0  0  0
   -3.5400    1.1357    0.0000 C   0  0  0  0  0  0  0  0  0  0  0  0
   -3.1377   -1.4311    0.0000 C   0  0  0  0  0  0  0  0  0  0  0  0
   -4.0798   -0.2638    0.0000 C   0  0  0  0  0  0  0  0  0  0  0  0
  1  5  1  0
  2  9  1  0
  3  4  1  0
  3  5  2  0
  3  6  1  0
  4  7  2  0
  4  8  1  0
  5  9  1  0
  6 10  2  0
  7 12  1  0
  8 13  2  0
  9 11  2  0
 10 11  1  0
 12 14  2  0
 13 14  1  0
M  END
>  <PUBCHEM_COMPOUND_CID>  (1) 
254

>  <PUBCHEM_COMPOUND_CANONICALIZED>  (1) 
1

>  <PUBCHEM_CACTVS_COMPLEXITY>  (1) 
175

>  <PUBCHEM_CACTVS_HBOND_ACCEPTOR>  (1) 
2

>  <PUBCHEM_CACTVS_HBOND_DONOR>  (1) 
2

>  <PUBCHEM_CACTVS_ROTATABLE_BOND>  (1) 
1

>  <PUBCHEM_CACTVS_SUBSKEYS>  (1) 
AAADccBwMAAAAAAAAAAAAAAAAAAAAAAAAAAwYAAAAAAAAAABQAAAGgAACAAADASAmAAwBoAAAgCAAiBCAAACAAAgIAAIiAAGiIgJJiKCERKAcAEkwBEJmAeAwPAOgAABAAAIQAAAAAIAABCAAAAAAAAAAA==

>  <PUBCHEM_IUPAC_OPENEYE_NAME>  (1) 
3-phenylbenzene-1,2-diol

>  <PUBCHEM_IUPAC_CAS_NAME>  (1) 
3-phenylbenzene-1,2-diol

>  <PUBCHEM_IUPAC_NAME_MARKUP>  (1) 
3-phenylbenzene-1,2-diol

>  <PUBCHEM_IUPAC_NAME>  (1) 
3-phenylbenzene-1,2-diol

>  <PUBCHEM_IUPAC_SYSTEMATIC_NAME>  (1) 
3-phenylbenzene-1,2-diol

>  <PUBCHEM_IUPAC_TRADITIONAL_NAME>  (1) 
3-phenylpyrocatechol

>  <PUBCHEM_IUPAC_INCHI>  (1) 
InChI=1S/C12H10O2/c13-11-8-4-7-10(12(11)14)9-5-2-1-3-6-9/h1-8,13-14H

>  <PUBCHEM_IUPAC_INCHIKEY>  (1) 
YKOQAAJBYBTSBS-UHFFFAOYSA-N

>  <PUBCHEM_XLOGP3>  (1) 
2.7

>  <PUBCHEM_EXACT_MASS>  (1) 
186.06808

>  <PUBCHEM_MOLECULAR_FORMULA>  (1) 
C12H10O2

>  <PUBCHEM_MOLECULAR_WEIGHT>  (1) 
186.21

>  <PUBCHEM_OPENEYE_CAN_SMILES>  (1) 
C1=CC=C(C=C1)C2=C(C(=CC=C2)O)O

>  <PUBCHEM_OPENEYE_ISO_SMILES>  (1) 
C1=CC=C(C=C1)C2=C(C(=CC=C2)O)O

>  <PUBCHEM_CACTVS_TPSA>  (1) 
40.5

>  <PUBCHEM_MONOISOTOPIC_WEIGHT>  (1) 
186.06808

>  <PUBCHEM_TOTAL_CHARGE>  (1) 
0

>  <PUBCHEM_HEAVY_ATOM_COUNT>  (1) 
14

>  <PUBCHEM_ATOM_DEF_STEREO_COUNT>  (1) 
0

>  <PUBCHEM_ATOM_UDEF_STEREO_COUNT>  (1) 
0

>  <PUBCHEM_BOND_DEF_STEREO_COUNT>  (1) 
0

>  <PUBCHEM_BOND_UDEF_STEREO_COUNT>  (1) 
0

>  <PUBCHEM_ISOTOPIC_ATOM_COUNT>  (1) 
0

>  <PUBCHEM_COMPONENT_COUNT>  (1) 
1

>  <PUBCHEM_CACTVS_TAUTO_COUNT>  (1) 
-1

>  <PUBCHEM_COORDINATE_TYPE>  (1) 
1
5
255

>  <PUBCHEM_BONDANNOTATIONS>  (1) 
10  11  8
12  14  8
13  14  8
3  5  8
3  6  8
4  7  8
4  8  8
5  9  8
6  10  8
7  12  8
8  13  8
9  11  8

$$$$
