257
     RDKit          2D

 48 48  0  0  1  0  0  0  0  0999 V2000
   -6.7307   -2.3937    0.0000 P   0  0  0  0  0  0  0  0  0  0  0  0
   -7.4912    0.5083    0.0000 O   0  0  0  0  0  0  0  0  0  0  0  0
   -4.2917    3.6727    0.0000 O   0  0  0  0  0  0  0  0  0  0  0  0
   -5.6642   -1.3389    0.0000 O   0  0  0  0  0  0  0  0  0  0  0  0
   -7.1851    4.4651    0.0000 O   0  0  0  0  0  0  0  0  0  0  0  0
  -10.3846    1.3008    0.0000 O   0  0  0  0  0  0  0  0  0  0  0  0
   -4.2175   -1.7351    0.0000 O   0  0  0  0  0  0  0  0  0  0  0  0
   -2.3905   -3.5823    0.0000 O   0  0  0  0  0  0  0  0  0  0  0  0
   -2.4647    1.8255    0.0000 O   0  0  0  0  0  0  0  0  0  0  0  0
    0.0485    2.4840    0.0000 O   0  0  0  0  0  0  0  0  0  0  0  0
   -7.7855   -1.3272    0.0000 O   0  0  0  0  0  0  0  0  0  0  0  0
   -7.7972   -3.4485    0.0000 O   0  0  0  0  0  0  0  0  0  0  0  0
   -5.6759   -3.4602    0.0000 O   0  0  0  0  0  0  0  0  0  0  0  0
   -3.5312    0.7707    0.0000 N   0  0  0  0  0  0  0  0  0  0  0  0
   -5.3582    2.6179    0.0000 C   0  0  0  0  0  0  0  0  0  0  0  0
   -4.9779    1.1669    0.0000 C   0  0  0  0  0  0  0  0  0  0  0  0
   -6.8049    3.0141    0.0000 C   0  0  0  0  0  0  0  0  0  0  0  0
   -7.8714    1.9593    0.0000 C   0  0  0  0  0  0  0  0  0  0  0  0
   -6.0444    0.1121    0.0000 C   0  0  0  0  0  0  0  0  0  0  0  0
   -9.3181    2.3555    0.0000 C   0  0  0  0  0  0  0  0  0  0  0  0
   -3.1510   -0.6803    0.0000 C   0  0  0  0  0  0  0  0  0  0  0  0
   -1.7043   -1.0765    0.0000 C   0  0  0  0  0  0  0  0  0  0  0  0
   -2.8450    3.2765    0.0000 C   0  0  0  0  0  0  0  0  0  0  0  0
   -1.3240   -2.5276    0.0000 C   0  0  0  0  0  0  0  0  0  0  0  0
   -1.7785    4.3313    0.0000 C   0  0  0  0  0  0  0  0  0  0  0  0
    0.1227   -2.9238    0.0000 C   0  0  0  0  0  0  0  0  0  0  0  0
   -0.3317    3.9351    0.0000 C   0  0  0  0  0  0  0  0  0  0  0  0
    0.5029   -4.3748    0.0000 C   0  0  0  0  0  0  0  0  0  0  0  0
    0.7348    4.9899    0.0000 C   0  0  0  0  0  0  0  0  0  0  0  0
    2.1815    4.5936    0.0000 C   0  0  0  0  0  0  0  0  0  0  0  0
    1.9496   -4.7710    0.0000 C   0  0  0  0  0  0  0  0  0  0  0  0
    3.2480    5.6484    0.0000 C   0  0  0  0  0  0  0  0  0  0  0  0
    2.3299   -6.2220    0.0000 C   0  0  0  0  0  0  0  0  0  0  0  0
    4.6947    5.2522    0.0000 C   0  0  0  0  0  0  0  0  0  0  0  0
    3.7766   -6.6182    0.0000 C   0  0  0  0  0  0  0  0  0  0  0  0
    5.7612    6.3070    0.0000 C   0  0  0  0  0  0  0  0  0  0  0  0
    4.1568   -8.0692    0.0000 C   0  0  0  0  0  0  0  0  0  0  0  0
    7.2079    5.9108    0.0000 C   0  0  0  0  0  0  0  0  0  0  0  0
    5.6035   -8.4654    0.0000 C   0  0  0  0  0  0  0  0  0  0  0  0
    8.2744    6.9656    0.0000 C   0  0  0  0  0  0  0  0  0  0  0  0
    5.9838   -9.9165    0.0000 C   0  0  0  0  0  0  0  0  0  0  0  0
    9.7211    6.5694    0.0000 C   0  0  0  0  0  0  0  0  0  0  0  0
    7.4305  -10.3127    0.0000 C   0  0  0  0  0  0  0  0  0  0  0  0
   10.7876    7.6242    0.0000 C   0  0  0  0  0  0  0  0  0  0  0  0
    7.8107  -11.7637    0.0000 C   0  0  0  0  0  0  0  0  0  0  0  0
   12.2344    7.2279    0.0000 C   0  0  0  0  0  0  0  0  0  0  0  0
    9.2575  -12.1599    0.0000 C   0  0  0  0  0  0  0  0  0  0  0  0
   13.3009    8.2827    0.0000 C   0  0  0  0  0  0  0  0  0  0  0  0
  1  4  1  0
  1 11  1  0
  1 12  1  0
  1 13  2  0
  2 18  1  0
  2 19  1  0
  3 15  1  0
  3 23  1  0
  4 19  1  0
  5 17  1  0
  6 20  1  0
  7 21  2  0
  8 24  1  0
  9 23  2  0
 10 27  1  0
 14 16  1  0
 14 21  1  0
 15 16  1  0
 15 17  1  0
 16 19  1  0
 17 18  1  0
 18 20  1  0
 21 22  1  0
 22 24  1  0
 23 25  1  0
 24 26  1  0
 25 27  1  0
 26 28  1  0
 27 29  1  0
 28 31  1  0
 29 30  1  0
 30 32  1  0
 31 33  1  0
 32 34  1  0
 33 35  1  0
 34 36  1  0
 35 37  1  0
 36 38  1  0
 37 39  1  0
 38 40  1  0
 39 41  1  0
 40 42  1  0
 41 43  1  0
 42 44  1  0
 43 45  1  0
 44 46  1  0
 45 47  1  0
 46 48  1  0
M  END
>  <PUBCHEM_COMPOUND_CID>  (1) 
257

>  <PUBCHEM_COMPOUND_CANONICALIZED>  (1) 
1

>  <PUBCHEM_CACTVS_COMPLEXITY>  (1) 
890

>  <PUBCHEM_CACTVS_HBOND_ACCEPTOR>  (1) 
12

>  <PUBCHEM_CACTVS_HBOND_DONOR>  (1) 
7

>  <PUBCHEM_CACTVS_ROTATABLE_BOND>  (1) 
30

>  <PUBCHEM_CACTVS_SUBSKEYS>  (1) 
AAADcfB+PAIAAAAAAAAAAAAAAAAAAAAAAAAkAAAAAAAAAAAAAAAAHgAQCCAACDzxgAcCCALABxAIQAGQGIAAAAAAAAAAAIEIAAATEBYAgAAHQAAHNgCXAAH4+KeAAAAAAAAAAAAAAAAAAAAAAAAAAAAAAA==

>  <PUBCHEM_IUPAC_OPENEYE_NAME>  (1) 
[3-hydroxy-2-(hydroxymethyl)-5-(3-hydroxytetradecanoylamino)-6-phosphonooxy-tetrahydropyran-4-yl] 3-hydroxytetradecanoate

>  <PUBCHEM_IUPAC_CAS_NAME>  (1) 
3-hydroxytetradecanoic acid [3-hydroxy-2-(hydroxymethyl)-5-[(3-hydroxy-1-oxotetradecyl)amino]-6-phosphonooxy-4-oxanyl] ester

>  <PUBCHEM_IUPAC_NAME_MARKUP>  (1) 
[3-hydroxy-2-(hydroxymethyl)-5-(3-hydroxytetradecanoylamino)-6-phosphonooxyoxan-4-yl] 3-hydroxytetradecanoate

>  <PUBCHEM_IUPAC_NAME>  (1) 
[3-hydroxy-2-(hydroxymethyl)-5-(3-hydroxytetradecanoylamino)-6-phosphonooxyoxan-4-yl] 3-hydroxytetradecanoate

>  <PUBCHEM_IUPAC_SYSTEMATIC_NAME>  (1) 
[2-(hydroxymethyl)-3-oxidanyl-5-(3-oxidanyltetradecanoylamino)-6-phosphonooxy-oxan-4-yl] 3-oxidanyltetradecanoate

>  <PUBCHEM_IUPAC_TRADITIONAL_NAME>  (1) 
3-hydroxymyristic acid [3-hydroxy-5-(3-hydroxytetradecanoylamino)-2-methylol-6-phosphonooxy-tetrahydropyran-4-yl] ester

>  <PUBCHEM_IUPAC_INCHI>  (1) 
InChI=1S/C34H66NO12P/c1-3-5-7-9-11-13-15-17-19-21-26(37)23-29(39)35-31-33(32(41)28(25-36)45-34(31)47-48(42,43)44)46-30(40)24-27(38)22-20-18-16-14-12-10-8-6-4-2/h26-28,31-34,36-38,41H,3-25H2,1-2H3,(H,35,39)(H2,42,43,44)

>  <PUBCHEM_IUPAC_INCHIKEY>  (1) 
HEHQDWUWJVPREQ-UHFFFAOYSA-N

>  <PUBCHEM_XLOGP3_AA>  (1) 
7.2

>  <PUBCHEM_EXACT_MASS>  (1) 
711.432264

>  <PUBCHEM_MOLECULAR_FORMULA>  (1) 
C34H66NO12P

>  <PUBCHEM_MOLECULAR_WEIGHT>  (1) 
711.9

>  <PUBCHEM_OPENEYE_CAN_SMILES>  (1) 
CCCCCCCCCCCC(CC(=O)NC1C(C(C(OC1OP(=O)(O)O)CO)O)OC(=O)CC(CCCCCCCCCCC)O)O

>  <PUBCHEM_OPENEYE_ISO_SMILES>  (1) 
CCCCCCCCCCCC(CC(=O)NC1C(C(C(OC1OP(=O)(O)O)CO)O)OC(=O)CC(CCCCCCCCCCC)O)O

>  <PUBCHEM_CACTVS_TPSA>  (1) 
212

>  <PUBCHEM_MONOISOTOPIC_WEIGHT>  (1) 
711.432264

>  <PUBCHEM_TOTAL_CHARGE>  (1) 
0

>  <PUBCHEM_HEAVY_ATOM_COUNT>  (1) 
48

>  <PUBCHEM_ATOM_DEF_STEREO_COUNT>  (1) 
0

>  <PUBCHEM_ATOM_UDEF_STEREO_COUNT>  (1) 
7

>  <PUBCHEM_BOND_DEF_STEREO_COUNT>  (1) 
0

>  <PUBCHEM_BOND_UDEF_STEREO_COUNT>  (1) 
0

>  <PUBCHEM_ISOTOPIC_ATOM_COUNT>  (1) 
0

>  <PUBCHEM_COMPONENT_COUNT>  (1) 
1

>  <PUBCHEM_CACTVS_TAUTO_COUNT>  (1) 
-1

>  <PUBCHEM_COORDINATE_TYPE>  (1) 
1
5
255

>  <PUBCHEM_BONDANNOTATIONS>  (1) 
27  10  3
16  14  3
18  20  3
15  3  3
19  4  3
17  5  3
24  8  3

$$$$
