261
     RDKit          2D

  5  4  0  0  0  0  0  0  0  0999 V2000
    2.5981   -0.3000    0.0000 O   0  0  0  0  0  0  0  0  0  0  0  0
   -1.2990    0.4500    0.0000 C   0  0  0  0  0  0  0  0  0  0  0  0
    0.0000   -0.3000    0.0000 C   0  0  0  0  0  0  0  0  0  0  0  0
   -2.5981   -0.3000    0.0000 C   0  0  0  0  0  0  0  0  0  0  0  0
    1.2990    0.4500    0.0000 C   0  0  0  0  0  0  0  0  0  0  0  0
  1  5  2  0
  2  3  1  0
  2  4  1  0
  3  5  1  0
M  END
>  <PUBCHEM_COMPOUND_CID>  (1) 
261

>  <PUBCHEM_COMPOUND_CANONICALIZED>  (1) 
1

>  <PUBCHEM_CACTVS_COMPLEXITY>  (1) 
24.8

>  <PUBCHEM_CACTVS_HBOND_ACCEPTOR>  (1) 
1

>  <PUBCHEM_CACTVS_HBOND_DONOR>  (1) 
0

>  <PUBCHEM_CACTVS_ROTATABLE_BOND>  (1) 
2

>  <PUBCHEM_CACTVS_SUBSKEYS>  (1) 
AAADccBgIAAAAAAAAAAAAAAAAAAAAAAAAAAAAAAAAAAAAAAAAAAAGgAAAAAACACggAICAAAAAAAIAAgQgAAAAAAAAAAAAAEAAAAAABAAAAAAAAAAAAAAAAAAAAAAAAAAAAAAAAAAAAAAAAAAAAAAAAAAAA==

>  <PUBCHEM_IUPAC_OPENEYE_NAME>  (1) 
butanal

>  <PUBCHEM_IUPAC_CAS_NAME>  (1) 
butanal

>  <PUBCHEM_IUPAC_NAME_MARKUP>  (1) 
butanal

>  <PUBCHEM_IUPAC_NAME>  (1) 
butanal

>  <PUBCHEM_IUPAC_SYSTEMATIC_NAME>  (1) 
butanal

>  <PUBCHEM_IUPAC_TRADITIONAL_NAME>  (1) 
butyraldehyde

>  <PUBCHEM_IUPAC_INCHI>  (1) 
InChI=1S/C4H8O/c1-2-3-4-5/h4H,2-3H2,1H3

>  <PUBCHEM_IUPAC_INCHIKEY>  (1) 
ZTQSAGDEMFDKMZ-UHFFFAOYSA-N

>  <PUBCHEM_XLOGP3>  (1) 
0.9

>  <PUBCHEM_EXACT_MASS>  (1) 
72.057515

>  <PUBCHEM_MOLECULAR_FORMULA>  (1) 
C4H8O

>  <PUBCHEM_MOLECULAR_WEIGHT>  (1) 
72.11

>  <PUBCHEM_OPENEYE_CAN_SMILES>  (1) 
CCCC=O

>  <PUBCHEM_OPENEYE_ISO_SMILES>  (1) 
CCCC=O

>  <PUBCHEM_CACTVS_TPSA>  (1) 
17.1

>  <PUBCHEM_MONOISOTOPIC_WEIGHT>  (1) 
72.057515

>  <PUBCHEM_TOTAL_CHARGE>  (1) 
0

>  <PUBCHEM_HEAVY_ATOM_COUNT>  (1) 
5

>  <PUBCHEM_ATOM_DEF_STEREO_COUNT>  (1) 
0

>  <PUBCHEM_ATOM_UDEF_STEREO_COUNT>  (1) 
0

>  <PUBCHEM_BOND_DEF_STEREO_COUNT>  (1) 
0

>  <PUBCHEM_BOND_UDEF_STEREO_COUNT>  (1) 
0

>  <PUBCHEM_ISOTOPIC_ATOM_COUNT>  (1) 
0

>  <PUBCHEM_COMPONENT_COUNT>  (1) 
1

>  <PUBCHEM_CACTVS_TAUTO_COUNT>  (1) 
-1

>  <PUBCHEM_COORDINATE_TYPE>  (1) 
1
5
255

$$$$
