263
     RDKit          2D

  5  4  0  0  0  0  0  0  0  0999 V2000
    2.5981   -0.3000    0.0000 O   0  0  0  0  0  0  0  0  0  0  0  0
    0.0000   -0.3000    0.0000 C   0  0  0  0  0  0  0  0  0  0  0  0
   -1.2990    0.4500    0.0000 C   0  0  0  0  0  0  0  0  0  0  0  0
    1.2990    0.4500    0.0000 C   0  0  0  0  0  0  0  0  0  0  0  0
   -2.5981   -0.3000    0.0000 C   0  0  0  0  0  0  0  0  0  0  0  0
  1  4  1  0
  2  3  1  0
  2  4  1  0
  3  5  1  0
M  END
>  <PUBCHEM_COMPOUND_CID>  (1) 
263

>  <PUBCHEM_COMPOUND_CANONICALIZED>  (1) 
1

>  <PUBCHEM_CACTVS_COMPLEXITY>  (1) 
13.1

>  <PUBCHEM_CACTVS_HBOND_ACCEPTOR>  (1) 
1

>  <PUBCHEM_CACTVS_HBOND_DONOR>  (1) 
1

>  <PUBCHEM_CACTVS_ROTATABLE_BOND>  (1) 
2

>  <PUBCHEM_CACTVS_SUBSKEYS>  (1) 
AAADccBgIAAAAAAAAAAAAAAAAAAAAAAAAAAAAAAAAAAAAAAAAAAAGgAACAAACACggAICAAAAAgAAAAAAAAAAAAAAAAAAAAAAAAAAEAAAAAAAQAAEAAAAAAAAAAAAAAAAAAAAAAAAAAAAAAAAAAAAAAAAAA==

>  <PUBCHEM_IUPAC_OPENEYE_NAME>  (1) 
butan-1-ol

>  <PUBCHEM_IUPAC_CAS_NAME>  (1) 
1-butanol

>  <PUBCHEM_IUPAC_NAME_MARKUP>  (1) 
butan-1-ol

>  <PUBCHEM_IUPAC_NAME>  (1) 
butan-1-ol

>  <PUBCHEM_IUPAC_SYSTEMATIC_NAME>  (1) 
butan-1-ol

>  <PUBCHEM_IUPAC_TRADITIONAL_NAME>  (1) 
butan-1-ol

>  <PUBCHEM_IUPAC_INCHI>  (1) 
InChI=1S/C4H10O/c1-2-3-4-5/h5H,2-4H2,1H3

>  <PUBCHEM_IUPAC_INCHIKEY>  (1) 
LRHPLDYGYMQRHN-UHFFFAOYSA-N

>  <PUBCHEM_XLOGP3>  (1) 
0.9

>  <PUBCHEM_EXACT_MASS>  (1) 
74.073165

>  <PUBCHEM_MOLECULAR_FORMULA>  (1) 
C4H10O

>  <PUBCHEM_MOLECULAR_WEIGHT>  (1) 
74.12

>  <PUBCHEM_OPENEYE_CAN_SMILES>  (1) 
CCCCO

>  <PUBCHEM_OPENEYE_ISO_SMILES>  (1) 
CCCCO

>  <PUBCHEM_CACTVS_TPSA>  (1) 
20.2

>  <PUBCHEM_MONOISOTOPIC_WEIGHT>  (1) 
74.073165

>  <PUBCHEM_TOTAL_CHARGE>  (1) 
0

>  <PUBCHEM_HEAVY_ATOM_COUNT>  (1) 
5

>  <PUBCHEM_ATOM_DEF_STEREO_COUNT>  (1) 
0

>  <PUBCHEM_ATOM_UDEF_STEREO_COUNT>  (1) 
0

>  <PUBCHEM_BOND_DEF_STEREO_COUNT>  (1) 
0

>  <PUBCHEM_BOND_UDEF_STEREO_COUNT>  (1) 
0

>  <PUBCHEM_ISOTOPIC_ATOM_COUNT>  (1) 
0

>  <PUBCHEM_COMPONENT_COUNT>  (1) 
1

>  <PUBCHEM_CACTVS_TAUTO_COUNT>  (1) 
-1

>  <PUBCHEM_COORDINATE_TYPE>  (1) 
1
5
255

$$$$
