265
     RDKit          2D

 53 55  0  0  1  0  0  0  0  0999 V2000
  -14.8744   -0.2316    0.0000 S   0  0  0  0  0  0  0  0  0  0  0  0
    3.5748   -1.7553    0.0000 P   0  0  0  0  0  0  0  0  0  0  0  0
    3.2225    3.2688    0.0000 P   0  0  0  0  0  0  0  0  0  0  0  0
    0.6254    3.1971    0.0000 P   0  0  0  0  0  0  0  0  0  0  0  0
    7.2553    0.9893    0.0000 O   0  0  0  0  0  0  0  0  0  0  0  0
    5.0136   -2.1793    0.0000 O   0  0  0  0  0  0  0  0  0  0  0  0
    8.2231   -2.7695    0.0000 O   0  0  0  0  0  0  0  0  0  0  0  0
    4.5417    2.5549    0.0000 O   0  0  0  0  0  0  0  0  0  0  0  0
    3.9988   -0.3165    0.0000 O   0  0  0  0  0  0  0  0  0  0  0  0
    2.1359   -1.3313    0.0000 O   0  0  0  0  0  0  0  0  0  0  0  0
    1.9033    3.9827    0.0000 O   0  0  0  0  0  0  0  0  0  0  0  0
   -0.6524    2.4116    0.0000 O   0  0  0  0  0  0  0  0  0  0  0  0
    3.1508   -3.1942    0.0000 O   0  0  0  0  0  0  0  0  0  0  0  0
    3.9364    4.5880    0.0000 O   0  0  0  0  0  0  0  0  0  0  0  0
   -3.1254   -2.1583    0.0000 O   0  0  0  0  0  0  0  0  0  0  0  0
    2.5086    1.9496    0.0000 O   0  0  0  0  0  0  0  0  0  0  0  0
    1.4110    1.9193    0.0000 O   0  0  0  0  0  0  0  0  0  0  0  0
   -0.1601    4.4750    0.0000 O   0  0  0  0  0  0  0  0  0  0  0  0
   -4.5274    1.5544    0.0000 O   0  0  0  0  0  0  0  0  0  0  0  0
   -9.7216    1.4111    0.0000 O   0  0  0  0  0  0  0  0  0  0  0  0
  -16.1109   -2.5166    0.0000 O   0  0  0  0  0  0  0  0  0  0  0  0
    9.7762    0.1005    0.0000 N   0  0  0  0  0  0  0  0  0  0  0  0
   11.9654    1.1485    0.0000 N   0  0  0  0  0  0  0  0  0  0  0  0
   10.6947   -2.4816    0.0000 N   0  0  0  0  0  0  0  0  0  0  0  0
   13.2851   -2.6818    0.0000 N   0  0  0  0  0  0  0  0  0  0  0  0
   14.7536   -0.5386    0.0000 N   0  0  0  0  0  0  0  0  0  0  0  0
   -5.7639   -0.7306    0.0000 N   0  0  0  0  0  0  0  0  0  0  0  0
  -10.9581   -0.8739    0.0000 N   0  0  0  0  0  0  0  0  0  0  0  0
    6.1002   -1.1453    0.0000 C   0  0  0  0  0  0  0  0  0  0  0  0
    7.5755   -1.4166    0.0000 C   0  0  0  0  0  0  0  0  0  0  0  0
    5.9023    0.3416    0.0000 C   0  0  0  0  0  0  0  0  0  0  0  0
    8.2894   -0.0973    0.0000 C   0  0  0  0  0  0  0  0  0  0  0  0
    4.5831    1.0555    0.0000 C   0  0  0  0  0  0  0  0  0  0  0  0
   10.8103   -0.9861    0.0000 C   0  0  0  0  0  0  0  0  0  0  0  0
   10.4901    1.4198    0.0000 C   0  0  0  0  0  0  0  0  0  0  0  0
   12.1633   -0.3384    0.0000 C   0  0  0  0  0  0  0  0  0  0  0  0
   -1.8889    0.1266    0.0000 C   0  0  0  0  0  0  0  0  0  0  0  0
   -3.1668   -0.6589    0.0000 C   0  0  0  0  0  0  0  0  0  0  0  0
   -0.6111    0.9122    0.0000 C   0  0  0  0  0  0  0  0  0  0  0  0
   13.4007   -1.1863    0.0000 C   0  0  0  0  0  0  0  0  0  0  0  0
   -2.6745    1.4045    0.0000 C   0  0  0  0  0  0  0  0  0  0  0  0
   -1.1034   -1.1512    0.0000 C   0  0  0  0  0  0  0  0  0  0  0  0
   11.9321   -3.3295    0.0000 C   0  0  0  0  0  0  0  0  0  0  0  0
   -4.4860    0.0550    0.0000 C   0  0  0  0  0  0  0  0  0  0  0  0
   -7.0831   -0.0167    0.0000 C   0  0  0  0  0  0  0  0  0  0  0  0
   -8.3610   -0.8022    0.0000 C   0  0  0  0  0  0  0  0  0  0  0  0
   -9.6802   -0.0883    0.0000 C   0  0  0  0  0  0  0  0  0  0  0  0
  -12.2773   -0.1600    0.0000 C   0  0  0  0  0  0  0  0  0  0  0  0
  -13.5551   -0.9455    0.0000 C   0  0  0  0  0  0  0  0  0  0  0  0
  -16.1522   -1.0172    0.0000 C   0  0  0  0  0  0  0  0  0  0  0  0
  -17.4715   -0.3033    0.0000 C   0  0  0  0  0  0  0  0  0  0  0  0
  -18.7493   -1.0888    0.0000 C   0  0  0  0  0  0  0  0  0  0  0  0
  -20.0686   -0.3749    0.0000 C   0  0  0  0  0  0  0  0  0  0  0  0
  1 49  1  0
  1 50  1  0
  2  6  1  0
  2  9  1  0
  2 10  1  0
  2 13  2  0
  3  8  1  0
  3 11  1  0
  3 14  1  0
  3 16  2  0
  4 11  1  0
  4 12  1  0
  4 17  1  0
  4 18  2  0
  5 31  1  0
  5 32  1  0
  6 29  1  0
  7 30  1  0
  8 33  1  0
 12 39  1  0
 15 38  1  0
 19 44  2  0
 20 47  2  0
 21 50  2  0
 22 32  1  0
 22 34  1  0
 22 35  1  0
 23 35  2  0
 23 36  1  0
 24 34  1  0
 24 43  2  0
 25 40  2  0
 25 43  1  0
 26 40  1  0
 27 44  1  0
 27 45  1  0
 28 47  1  0
 28 48  1  0
 29 30  1  0
 29 31  1  0
 30 32  1  0
 31 33  1  0
 34 36  2  0
 36 40  1  0
 37 38  1  0
 37 39  1  0
 37 41  1  0
 37 42  1  0
 38 44  1  0
 45 46  1  0
 46 47  1  0
 48 49  1  0
 50 51  1  0
 51 52  1  0
 52 53  1  0
M  END
>  <PUBCHEM_COMPOUND_CID>  (1) 
265

>  <PUBCHEM_COMPOUND_CANONICALIZED>  (1) 
1

>  <PUBCHEM_CACTVS_COMPLEXITY>  (1) 
1410

>  <PUBCHEM_CACTVS_HBOND_ACCEPTOR>  (1) 
22

>  <PUBCHEM_CACTVS_HBOND_DONOR>  (1) 
9

>  <PUBCHEM_CACTVS_ROTATABLE_BOND>  (1) 
22

>  <PUBCHEM_CACTVS_SUBSKEYS>  (1) 
AAADcfB7vgNAAAAAAAAAAAAAAAAAAWJAAAAsAAAAAAAAAFgB+AAAHgQQCCAADhzl1waH8L/MFxioQQdxdIKAgC0RELABUKFoVBCDWBpgyEAeRAgPFgLzACDyMAIJAAAAAAAAAAAAAAAAAAAAAAAAAAAAAA==

>  <PUBCHEM_IUPAC_OPENEYE_NAME>  (1) 
S-[2-[3-[[4-[[[5-(6-aminopurin-9-yl)-4-hydroxy-3-phosphonooxy-tetrahydrofuran-2-yl]methoxy-hydroxy-phosphoryl]oxy-hydroxy-phosphoryl]oxy-2-hydroxy-3,3-dimethyl-butanoyl]amino]propanoylamino]ethyl] butanethioate

>  <PUBCHEM_IUPAC_CAS_NAME>  (1) 
butanethioic acid S-[2-[[3-[[4-[[[5-(6-aminopurin-9-yl)-4-hydroxy-3-phosphonooxy-2-oxolanyl]methoxy-hydroxyphosphoryl]oxy-hydroxyphosphoryl]oxy-2-hydroxy-3,3-dimethyl-1-oxobutyl]amino]-1-oxopropyl]amino]ethyl] ester

>  <PUBCHEM_IUPAC_NAME_MARKUP>  (1) 
<I>S</I>-[2-[3-[[4-[[[5-(6-aminopurin-9-yl)-4-hydroxy-3-phosphonooxyoxolan-2-yl]methoxy-hydroxyphosphoryl]oxy-hydroxyphosphoryl]oxy-2-hydroxy-3,3-dimethylbutanoyl]amino]propanoylamino]ethyl] butanethioate

>  <PUBCHEM_IUPAC_NAME>  (1) 
S-[2-[3-[[4-[[[5-(6-aminopurin-9-yl)-4-hydroxy-3-phosphonooxyoxolan-2-yl]methoxy-hydroxyphosphoryl]oxy-hydroxyphosphoryl]oxy-2-hydroxy-3,3-dimethylbutanoyl]amino]propanoylamino]ethyl] butanethioate

>  <PUBCHEM_IUPAC_SYSTEMATIC_NAME>  (1) 
S-[2-[3-[[4-[[[5-(6-aminopurin-9-yl)-4-oxidanyl-3-phosphonooxy-oxolan-2-yl]methoxy-oxidanyl-phosphoryl]oxy-oxidanyl-phosphoryl]oxy-3,3-dimethyl-2-oxidanyl-butanoyl]amino]propanoylamino]ethyl] butanethioate

>  <PUBCHEM_IUPAC_TRADITIONAL_NAME>  (1) 
butanethioic acid S-[2-[3-[[4-[[(5-adenin-9-yl-4-hydroxy-3-phosphonooxy-tetrahydrofuran-2-yl)methoxy-hydroxy-phosphoryl]oxy-hydroxy-phosphoryl]oxy-2-hydroxy-3,3-dimethyl-butanoyl]amino]propanoylamino]ethyl] ester

>  <PUBCHEM_IUPAC_INCHI>  (1) 
InChI=1S/C25H42N7O17P3S/c1-4-5-16(34)53-9-8-27-15(33)6-7-28-23(37)20(36)25(2,3)11-46-52(43,44)49-51(41,42)45-10-14-19(48-50(38,39)40)18(35)24(47-14)32-13-31-17-21(26)29-12-30-22(17)32/h12-14,18-20,24,35-36H,4-11H2,1-3H3,(H,27,33)(H,28,37)(H,41,42)(H,43,44)(H2,26,29,30)(H2,38,39,40)

>  <PUBCHEM_IUPAC_INCHIKEY>  (1) 
CRFNGMNYKDXRTN-UHFFFAOYSA-N

>  <PUBCHEM_XLOGP3>  (1) 
-4.8

>  <PUBCHEM_EXACT_MASS>  (1) 
837.157075

>  <PUBCHEM_MOLECULAR_FORMULA>  (1) 
C25H42N7O17P3S

>  <PUBCHEM_MOLECULAR_WEIGHT>  (1) 
837.6

>  <PUBCHEM_OPENEYE_CAN_SMILES>  (1) 
CCCC(=O)SCCNC(=O)CCNC(=O)C(C(C)(C)COP(=O)(O)OP(=O)(O)OCC1C(C(C(O1)N2C=NC3=C(N=CN=C32)N)O)OP(=O)(O)O)O

>  <PUBCHEM_OPENEYE_ISO_SMILES>  (1) 
CCCC(=O)SCCNC(=O)CCNC(=O)C(C(C)(C)COP(=O)(O)OP(=O)(O)OCC1C(C(C(O1)N2C=NC3=C(N=CN=C32)N)O)OP(=O)(O)O)O

>  <PUBCHEM_CACTVS_TPSA>  (1) 
389

>  <PUBCHEM_MONOISOTOPIC_WEIGHT>  (1) 
837.157075

>  <PUBCHEM_TOTAL_CHARGE>  (1) 
0

>  <PUBCHEM_HEAVY_ATOM_COUNT>  (1) 
53

>  <PUBCHEM_ATOM_DEF_STEREO_COUNT>  (1) 
0

>  <PUBCHEM_ATOM_UDEF_STEREO_COUNT>  (1) 
5

>  <PUBCHEM_BOND_DEF_STEREO_COUNT>  (1) 
0

>  <PUBCHEM_BOND_UDEF_STEREO_COUNT>  (1) 
0

>  <PUBCHEM_ISOTOPIC_ATOM_COUNT>  (1) 
0

>  <PUBCHEM_COMPONENT_COUNT>  (1) 
1

>  <PUBCHEM_CACTVS_TAUTO_COUNT>  (1) 
-1

>  <PUBCHEM_COORDINATE_TYPE>  (1) 
1
5
255

>  <PUBCHEM_BONDANNOTATIONS>  (1) 
38  15  3
32  22  3
22  34  8
22  35  8
23  35  8
23  36  8
24  34  8
24  43  8
25  40  8
25  43  8
31  33  3
34  36  8
36  40  8
29  6  3
30  7  3

$$$$
