280
     RDKit          2D

  3  2  0  0  0  0  0  0  0  0999 V2000
    1.5000    0.0000    0.0000 O   0  0  0  0  0  0  0  0  0  0  0  0
   -1.5000    0.0000    0.0000 O   0  0  0  0  0  0  0  0  0  0  0  0
    0.0000   -0.0000    0.0000 C   0  0  0  0  0  0  0  0  0  0  0  0
  1  3  2  0
  2  3  2  0
M  END
>  <PUBCHEM_COMPOUND_CID>  (1) 
280

>  <PUBCHEM_COMPOUND_CANONICALIZED>  (1) 
0

>  <PUBCHEM_CACTVS_COMPLEXITY>  (1) 
18.3

>  <PUBCHEM_CACTVS_HBOND_ACCEPTOR>  (1) 
2

>  <PUBCHEM_CACTVS_HBOND_DONOR>  (1) 
0

>  <PUBCHEM_CACTVS_ROTATABLE_BOND>  (1) 
0

>  <PUBCHEM_CACTVS_SUBSKEYS>  (1) 
AAADcQAAMAAAAAAAAAAAAAAAAAAAAAAAAAAAAAAAAAAAAAAAAAAAAgAAAAAAAAAAAAAACAAAAAAIAAAACAAAAAAAAAAAAAAAAAAAAAAAAAAAAAAAAAAAAAAAAAAAAAAAAAAAAAAAAAAAAAAAAAAAAAAAAA==

>  <PUBCHEM_IUPAC_INCHI>  (1) 
InChI=1S/CO2/c2-1-3

>  <PUBCHEM_IUPAC_INCHIKEY>  (1) 
CURLTUGMZLYLDI-UHFFFAOYSA-N

>  <PUBCHEM_XLOGP3_AA>  (1) 
0.9

>  <PUBCHEM_EXACT_MASS>  (1) 
43.989829

>  <PUBCHEM_MOLECULAR_FORMULA>  (1) 
CO2

>  <PUBCHEM_MOLECULAR_WEIGHT>  (1) 
44.009

>  <PUBCHEM_OPENEYE_CAN_SMILES>  (1) 
C(=O)=O

>  <PUBCHEM_OPENEYE_ISO_SMILES>  (1) 
C(=O)=O

>  <PUBCHEM_CACTVS_TPSA>  (1) 
34.1

>  <PUBCHEM_MONOISOTOPIC_WEIGHT>  (1) 
43.989829

>  <PUBCHEM_TOTAL_CHARGE>  (1) 
0

>  <PUBCHEM_HEAVY_ATOM_COUNT>  (1) 
3

>  <PUBCHEM_ATOM_DEF_STEREO_COUNT>  (1) 
0

>  <PUBCHEM_ATOM_UDEF_STEREO_COUNT>  (1) 
0

>  <PUBCHEM_BOND_DEF_STEREO_COUNT>  (1) 
0

>  <PUBCHEM_BOND_UDEF_STEREO_COUNT>  (1) 
0

>  <PUBCHEM_ISOTOPIC_ATOM_COUNT>  (1) 
0

>  <PUBCHEM_COMPONENT_COUNT>  (1) 
1

>  <PUBCHEM_CACTVS_TAUTO_COUNT>  (1) 
-1

>  <PUBCHEM_COORDINATE_TYPE>  (1) 
1
5
255

$$$$
