282
     RDKit          2D

 13 13  0  0  1  0  0  0  0  0999 V2000
    1.2676   -2.2941    0.0000 O   0  0  0  0  0  0  0  0  0  0  0  0
    4.0620   -1.2027    0.0000 O   0  0  0  0  0  0  0  0  0  0  0  0
   -4.8144    0.9089    0.0000 O   0  0  0  0  0  0  0  0  0  0  0  0
   -3.8692   -1.5112    0.0000 O   0  0  0  0  0  0  0  0  0  0  0  0
    1.4936   -0.8112    0.0000 C   0  0  0  0  0  0  0  0  0  0  0  0
    0.3224    0.1259    0.0000 C   0  0  0  0  0  0  0  0  0  0  0  0
    2.8908   -0.2655    0.0000 C   0  0  0  0  0  0  0  0  0  0  0  0
   -1.0748   -0.4198    0.0000 C   0  0  0  0  0  0  0  0  0  0  0  0
    0.5484    1.6088    0.0000 C   0  0  0  0  0  0  0  0  0  0  0  0
    3.1169    1.2173    0.0000 C   0  0  0  0  0  0  0  0  0  0  0  0
   -2.2460    0.5174    0.0000 C   0  0  0  0  0  0  0  0  0  0  0  0
    1.9457    2.1545    0.0000 C   0  0  0  0  0  0  0  0  0  0  0  0
   -3.6432   -0.0283    0.0000 C   0  0  0  0  0  0  0  0  0  0  0  0
  1  5  1  0
  2  7  1  0
  3 13  1  0
  4 13  2  0
  5  6  1  0
  5  7  1  0
  6  8  1  0
  6  9  2  0
  7 10  1  0
  8 11  1  0
  9 12  1  0
 10 12  2  0
 11 13  1  0
M  END
>  <PUBCHEM_COMPOUND_CID>  (1) 
282

>  <PUBCHEM_COMPOUND_CANONICALIZED>  (1) 
1

>  <PUBCHEM_CACTVS_COMPLEXITY>  (1) 
254

>  <PUBCHEM_CACTVS_HBOND_ACCEPTOR>  (1) 
4

>  <PUBCHEM_CACTVS_HBOND_DONOR>  (1) 
3

>  <PUBCHEM_CACTVS_ROTATABLE_BOND>  (1) 
3

>  <PUBCHEM_CACTVS_SUBSKEYS>  (1) 
AAADccBwOAAAAAAAAAAAAAAAAAAAAAAAAAAgAAAAAAAAAAAAAAAAGgAACAAADBSggAIACAAAAgCIAiDSCAAAAAAgAAAICAEAAAgJFBIAAQAAUAAEwAAJkAOI7CTAAAAAAAAAAAAAAAAAAAAAAAAAAAAAAA==

>  <PUBCHEM_IUPAC_OPENEYE_NAME>  (1) 
3-(5,6-dihydroxycyclohexa-1,3-dien-1-yl)propanoic acid

>  <PUBCHEM_IUPAC_CAS_NAME>  (1) 
3-(5,6-dihydroxy-1-cyclohexa-1,3-dienyl)propanoic acid

>  <PUBCHEM_IUPAC_NAME_MARKUP>  (1) 
3-(5,6-dihydroxycyclohexa-1,3-dien-1-yl)propanoic acid

>  <PUBCHEM_IUPAC_NAME>  (1) 
3-(5,6-dihydroxycyclohexa-1,3-dien-1-yl)propanoic acid

>  <PUBCHEM_IUPAC_SYSTEMATIC_NAME>  (1) 
3-[5,6-bis(oxidanyl)cyclohexa-1,3-dien-1-yl]propanoic acid

>  <PUBCHEM_IUPAC_TRADITIONAL_NAME>  (1) 
3-(5,6-dihydroxycyclohexa-1,3-dien-1-yl)propionic acid

>  <PUBCHEM_IUPAC_INCHI>  (1) 
InChI=1S/C9H12O4/c10-7-3-1-2-6(9(7)13)4-5-8(11)12/h1-3,7,9-10,13H,4-5H2,(H,11,12)

>  <PUBCHEM_IUPAC_INCHIKEY>  (1) 
RKDFGWAXBBGKMR-UHFFFAOYSA-N

>  <PUBCHEM_XLOGP3_AA>  (1) 
-0.7

>  <PUBCHEM_EXACT_MASS>  (1) 
184.073559

>  <PUBCHEM_MOLECULAR_FORMULA>  (1) 
C9H12O4

>  <PUBCHEM_MOLECULAR_WEIGHT>  (1) 
184.19

>  <PUBCHEM_OPENEYE_CAN_SMILES>  (1) 
C1=CC(C(C(=C1)CCC(=O)O)O)O

>  <PUBCHEM_OPENEYE_ISO_SMILES>  (1) 
C1=CC(C(C(=C1)CCC(=O)O)O)O

>  <PUBCHEM_CACTVS_TPSA>  (1) 
77.8

>  <PUBCHEM_MONOISOTOPIC_WEIGHT>  (1) 
184.073559

>  <PUBCHEM_TOTAL_CHARGE>  (1) 
0

>  <PUBCHEM_HEAVY_ATOM_COUNT>  (1) 
13

>  <PUBCHEM_ATOM_DEF_STEREO_COUNT>  (1) 
0

>  <PUBCHEM_ATOM_UDEF_STEREO_COUNT>  (1) 
2

>  <PUBCHEM_BOND_DEF_STEREO_COUNT>  (1) 
0

>  <PUBCHEM_BOND_UDEF_STEREO_COUNT>  (1) 
0

>  <PUBCHEM_ISOTOPIC_ATOM_COUNT>  (1) 
0

>  <PUBCHEM_COMPONENT_COUNT>  (1) 
1

>  <PUBCHEM_CACTVS_TAUTO_COUNT>  (1) 
-1

>  <PUBCHEM_COORDINATE_TYPE>  (1) 
1
5
255

>  <PUBCHEM_BONDANNOTATIONS>  (1) 
5  1  3
7  2  3

$$$$
