286
     RDKit          2D

  6  5  0  0  0  0  0  0  0  0999 V2000
   -1.4825    0.3386    0.0000 O   0  0  0  0  0  0  0  0  0  0  0  0
    2.2689   -0.9563    0.0000 O   0  0  0  0  0  0  0  0  0  0  0  0
    1.3020    1.4551    0.0000 O   0  0  0  0  0  0  0  0  0  0  0  0
   -2.8748   -0.2197    0.0000 N   0  0  0  0  0  0  0  0  0  0  0  0
   -0.3029   -0.5880    0.0000 C   0  0  0  0  0  0  0  0  0  0  0  0
    1.0893   -0.0297    0.0000 C   0  0  0  0  0  0  0  0  0  0  0  0
  1  4  1  0
  1  5  1  0
  2  6  1  0
  3  6  2  0
  5  6  1  0
M  END
>  <PUBCHEM_COMPOUND_CID>  (1) 
286

>  <PUBCHEM_COMPOUND_CANONICALIZED>  (1) 
1

>  <PUBCHEM_CACTVS_COMPLEXITY>  (1) 
52.8

>  <PUBCHEM_CACTVS_HBOND_ACCEPTOR>  (1) 
4

>  <PUBCHEM_CACTVS_HBOND_DONOR>  (1) 
2

>  <PUBCHEM_CACTVS_ROTATABLE_BOND>  (1) 
2

>  <PUBCHEM_CACTVS_SUBSKEYS>  (1) 
AAADcYBCMAAAAAAAAAAAAAAAAAAAAAAAAAAAAAAAAAAAAAAAAAAAGgAUCAAAAACggAIACAAAAgAIAACQCAIAAAAAAAAAAABAAAABAAAAAAAAAAAAAAABAAAAAAAAAAAAAAAAAAAAAAAAAAAAAAAAAAAAAA==

>  <PUBCHEM_IUPAC_OPENEYE_NAME>  (1) 
2-aminooxyacetic acid

>  <PUBCHEM_IUPAC_CAS_NAME>  (1) 
2-aminooxyacetic acid

>  <PUBCHEM_IUPAC_NAME_MARKUP>  (1) 
2-aminooxyacetic acid

>  <PUBCHEM_IUPAC_NAME>  (1) 
2-aminooxyacetic acid

>  <PUBCHEM_IUPAC_SYSTEMATIC_NAME>  (1) 
2-azanyloxyethanoic acid

>  <PUBCHEM_IUPAC_TRADITIONAL_NAME>  (1) 
2-aminooxyacetic acid

>  <PUBCHEM_IUPAC_INCHI>  (1) 
InChI=1S/C2H5NO3/c3-6-1-2(4)5/h1,3H2,(H,4,5)

>  <PUBCHEM_IUPAC_INCHIKEY>  (1) 
NQRKYASMKDDGHT-UHFFFAOYSA-N

>  <PUBCHEM_XLOGP3_AA>  (1) 
-3.4

>  <PUBCHEM_EXACT_MASS>  (1) 
91.026943

>  <PUBCHEM_MOLECULAR_FORMULA>  (1) 
C2H5NO3

>  <PUBCHEM_MOLECULAR_WEIGHT>  (1) 
91.07

>  <PUBCHEM_OPENEYE_CAN_SMILES>  (1) 
C(C(=O)O)ON

>  <PUBCHEM_OPENEYE_ISO_SMILES>  (1) 
C(C(=O)O)ON

>  <PUBCHEM_CACTVS_TPSA>  (1) 
72.6

>  <PUBCHEM_MONOISOTOPIC_WEIGHT>  (1) 
91.026943

>  <PUBCHEM_TOTAL_CHARGE>  (1) 
0

>  <PUBCHEM_HEAVY_ATOM_COUNT>  (1) 
6

>  <PUBCHEM_ATOM_DEF_STEREO_COUNT>  (1) 
0

>  <PUBCHEM_ATOM_UDEF_STEREO_COUNT>  (1) 
0

>  <PUBCHEM_BOND_DEF_STEREO_COUNT>  (1) 
0

>  <PUBCHEM_BOND_UDEF_STEREO_COUNT>  (1) 
0

>  <PUBCHEM_ISOTOPIC_ATOM_COUNT>  (1) 
0

>  <PUBCHEM_COMPONENT_COUNT>  (1) 
1

>  <PUBCHEM_CACTVS_TAUTO_COUNT>  (1) 
-1

>  <PUBCHEM_COORDINATE_TYPE>  (1) 
1
5
255

$$$$
