287
     RDKit          2D

 23 23  0  0  1  0  0  0  0  0999 V2000
    6.7860    0.1987    0.0000 P   0  0  0  0  0  0  0  0  0  0  0  0
    2.8265   -1.9397    0.0000 O   0  0  0  0  0  0  0  0  0  0  0  0
    1.6345    1.8456    0.0000 O   0  0  0  0  0  0  0  0  0  0  0  0
    5.4662   -0.5141    0.0000 O   0  0  0  0  0  0  0  0  0  0  0  0
    0.2295   -1.8660    0.0000 O   0  0  0  0  0  0  0  0  0  0  0  0
    6.0731    1.5185    0.0000 O   0  0  0  0  0  0  0  0  0  0  0  0
    8.1058    0.9115    0.0000 O   0  0  0  0  0  0  0  0  0  0  0  0
    7.4988   -1.1211    0.0000 O   0  0  0  0  0  0  0  0  0  0  0  0
   -6.2843   -2.4313    0.0000 O   0  0  0  0  0  0  0  0  0  0  0  0
   -3.6873   -2.5050    0.0000 O   0  0  0  0  0  0  0  0  0  0  0  0
   -2.3249   -0.2928    0.0000 N   0  0  0  0  0  0  0  0  0  0  0  0
    1.5919    0.3462    0.0000 C   0  0  0  0  0  0  0  0  0  0  0  0
    2.8691   -0.4403    0.0000 C   0  0  0  0  0  0  0  0  0  0  0  0
    0.2721   -0.3666    0.0000 C   0  0  0  0  0  0  0  0  0  0  0  0
    4.1889    0.2725    0.0000 C   0  0  0  0  0  0  0  0  0  0  0  0
   -1.0051    0.4200    0.0000 C   0  0  0  0  0  0  0  0  0  0  0  0
   -3.6021    0.4938    0.0000 C   0  0  0  0  0  0  0  0  0  0  0  0
   -4.9220   -0.2190    0.0000 C   0  0  0  0  0  0  0  0  0  0  0  0
   -3.5596    1.9932    0.0000 C   0  0  0  0  0  0  0  0  0  0  0  0
   -6.1992    0.5675    0.0000 C   0  0  0  0  0  0  0  0  0  0  0  0
   -4.8368    2.7797    0.0000 C   0  0  0  0  0  0  0  0  0  0  0  0
   -6.1566    2.0669    0.0000 C   0  0  0  0  0  0  0  0  0  0  0  0
   -4.9645   -1.7184    0.0000 C   0  0  0  0  0  0  0  0  0  0  0  0
  1  4  1  0
  1  6  1  0
  1  7  1  0
  1  8  2  0
  2 13  1  0
  3 12  1  0
  4 15  1  0
  5 14  2  0
  9 23  1  0
 10 23  2  0
 11 16  1  0
 11 17  1  0
 12 13  1  0
 12 14  1  0
 13 15  1  0
 14 16  1  0
 17 18  2  0
 17 19  1  0
 18 20  1  0
 18 23  1  0
 19 21  2  0
 20 22  2  0
 21 22  1  0
M  END
>  <PUBCHEM_COMPOUND_CID>  (1) 
287

>  <PUBCHEM_COMPOUND_CANONICALIZED>  (1) 
1

>  <PUBCHEM_CACTVS_COMPLEXITY>  (1) 
465

>  <PUBCHEM_CACTVS_HBOND_ACCEPTOR>  (1) 
10

>  <PUBCHEM_CACTVS_HBOND_DONOR>  (1) 
6

>  <PUBCHEM_CACTVS_ROTATABLE_BOND>  (1) 
9

>  <PUBCHEM_CACTVS_SUBSKEYS>  (1) 
AAADceByPAIAAAAAAAAAAAAAAAAAAAAAAAAwAAAAAAAAAAABAAAAHgAQCCAADBzhmAYwyILAAxCIQqTSSIKCAAAlAgAIiIHIbMgJNj7AlbGEcYhn8AHJ2ce62CKOAAAAAAACAAAAAAAAAAQAAAAAAAAAAA==

>  <PUBCHEM_IUPAC_OPENEYE_NAME>  (1) 
2-[(3,4-dihydroxy-2-oxo-5-phosphonooxy-pentyl)amino]benzoic acid

>  <PUBCHEM_IUPAC_CAS_NAME>  (1) 
2-[(3,4-dihydroxy-2-oxo-5-phosphonooxypentyl)amino]benzoic acid

>  <PUBCHEM_IUPAC_NAME_MARKUP>  (1) 
2-[(3,4-dihydroxy-2-oxo-5-phosphonooxypentyl)amino]benzoic acid

>  <PUBCHEM_IUPAC_NAME>  (1) 
2-[(3,4-dihydroxy-2-oxo-5-phosphonooxypentyl)amino]benzoic acid

>  <PUBCHEM_IUPAC_SYSTEMATIC_NAME>  (1) 
2-[[3,4-bis(oxidanyl)-2-oxidanylidene-5-phosphonooxy-pentyl]amino]benzoic acid

>  <PUBCHEM_IUPAC_TRADITIONAL_NAME>  (1) 
2-[(3,4-dihydroxy-2-keto-5-phosphonooxy-pentyl)amino]benzoic acid

>  <PUBCHEM_IUPAC_INCHI>  (1) 
InChI=1S/C12H16NO9P/c14-9(11(16)10(15)6-22-23(19,20)21)5-13-8-4-2-1-3-7(8)12(17)18/h1-4,10-11,13,15-16H,5-6H2,(H,17,18)(H2,19,20,21)

>  <PUBCHEM_IUPAC_INCHIKEY>  (1) 
QKMBYNRMPRKVTO-UHFFFAOYSA-N

>  <PUBCHEM_XLOGP3_AA>  (1) 
-1.3

>  <PUBCHEM_EXACT_MASS>  (1) 
349.056268

>  <PUBCHEM_MOLECULAR_FORMULA>  (1) 
C12H16NO9P

>  <PUBCHEM_MOLECULAR_WEIGHT>  (1) 
349.23

>  <PUBCHEM_OPENEYE_CAN_SMILES>  (1) 
C1=CC=C(C(=C1)C(=O)O)NCC(=O)C(C(COP(=O)(O)O)O)O

>  <PUBCHEM_OPENEYE_ISO_SMILES>  (1) 
C1=CC=C(C(=C1)C(=O)O)NCC(=O)C(C(COP(=O)(O)O)O)O

>  <PUBCHEM_CACTVS_TPSA>  (1) 
174

>  <PUBCHEM_MONOISOTOPIC_WEIGHT>  (1) 
349.056268

>  <PUBCHEM_TOTAL_CHARGE>  (1) 
0

>  <PUBCHEM_HEAVY_ATOM_COUNT>  (1) 
23

>  <PUBCHEM_ATOM_DEF_STEREO_COUNT>  (1) 
0

>  <PUBCHEM_ATOM_UDEF_STEREO_COUNT>  (1) 
2

>  <PUBCHEM_BOND_DEF_STEREO_COUNT>  (1) 
0

>  <PUBCHEM_BOND_UDEF_STEREO_COUNT>  (1) 
0

>  <PUBCHEM_ISOTOPIC_ATOM_COUNT>  (1) 
0

>  <PUBCHEM_COMPONENT_COUNT>  (1) 
1

>  <PUBCHEM_CACTVS_TAUTO_COUNT>  (1) 
-1

>  <PUBCHEM_COORDINATE_TYPE>  (1) 
1
5
255

>  <PUBCHEM_BONDANNOTATIONS>  (1) 
17  18  8
17  19  8
18  20  8
19  21  8
13  2  3
20  22  8
21  22  8
12  3  3

$$$$
