292
     RDKit          2D

 36 38  0  0  1  0  0  0  0  0999 V2000
    3.8620   -2.7219    0.0000 P   0  0  0  0  0  0  0  0  0  0  0  0
    1.2700   -2.9005    0.0000 P   0  0  0  0  0  0  0  0  0  0  0  0
   -2.8533   -0.7891    0.0000 O   0  0  0  0  0  0  0  0  0  0  0  0
    3.6557    0.2710    0.0000 O   0  0  0  0  0  0  0  0  0  0  0  0
   -0.7440    2.4692    0.0000 O   0  0  0  0  0  0  0  0  0  0  0  0
   -3.9752    2.9266    0.0000 O   0  0  0  0  0  0  0  0  0  0  0  0
    5.1064   -1.8844    0.0000 O   0  0  0  0  0  0  0  0  0  0  0  0
    7.3889    2.7836    0.0000 O   0  0  0  0  0  0  0  0  0  0  0  0
    4.6939    4.1014    0.0000 O   0  0  0  0  0  0  0  0  0  0  0  0
   -0.0775   -2.2416    0.0000 O   0  0  0  0  0  0  0  0  0  0  0  0
    7.5952   -0.2093    0.0000 O   0  0  0  0  0  0  0  0  0  0  0  0
    2.6176   -3.5594    0.0000 O   0  0  0  0  0  0  0  0  0  0  0  0
    0.9607    1.5888    0.0000 O   0  0  0  0  0  0  0  0  0  0  0  0
    4.6995   -3.9663    0.0000 O   0  0  0  0  0  0  0  0  0  0  0  0
    1.9290   -1.5530    0.0000 O   0  0  0  0  0  0  0  0  0  0  0  0
   -5.8573    2.5541    0.0000 O   0  0  0  0  0  0  0  0  0  0  0  0
    3.0244   -1.4775    0.0000 O   0  0  0  0  0  0  0  0  0  0  0  0
    0.6111   -4.2480    0.0000 O   0  0  0  0  0  0  0  0  0  0  0  0
   -5.4087   -0.0050    0.0000 N   0  0  0  0  0  0  0  0  0  0  0  0
   -7.8492    0.8861    0.0000 N   0  0  0  0  0  0  0  0  0  0  0  0
   -9.8411   -0.7819    0.0000 N   0  0  0  0  0  0  0  0  0  0  0  0
   -1.7871    1.3913    0.0000 C   0  0  0  0  0  0  0  0  0  0  0  0
   -3.2723    1.6015    0.0000 C   0  0  0  0  0  0  0  0  0  0  0  0
   -1.5281   -0.0862    0.0000 C   0  0  0  0  0  0  0  0  0  0  0  0
   -3.9312    0.2540    0.0000 C   0  0  0  0  0  0  0  0  0  0  0  0
    6.1445    1.9461    0.0000 C   0  0  0  0  0  0  0  0  0  0  0  0
    4.7970    2.6050    0.0000 C   0  0  0  0  0  0  0  0  0  0  0  0
    6.2477    0.4496    0.0000 C   0  0  0  0  0  0  0  0  0  0  0  0
    3.5526    1.7675    0.0000 C   0  0  0  0  0  0  0  0  0  0  0  0
    5.0033   -0.3879    0.0000 C   0  0  0  0  0  0  0  0  0  0  0  0
   -0.1806   -0.7451    0.0000 C   0  0  0  0  0  0  0  0  0  0  0  0
    2.2051    2.4264    0.0000 C   0  0  0  0  0  0  0  0  0  0  0  0
   -5.9231   -1.4140    0.0000 C   0  0  0  0  0  0  0  0  0  0  0  0
   -6.3717    1.1450    0.0000 C   0  0  0  0  0  0  0  0  0  0  0  0
   -7.4006   -1.6730    0.0000 C   0  0  0  0  0  0  0  0  0  0  0  0
   -8.3636   -0.5229    0.0000 C   0  0  0  0  0  0  0  0  0  0  0  0
  1  7  1  0
  1 12  1  0
  1 14  1  0
  1 17  2  0
  2 10  1  0
  2 12  1  0
  2 15  1  0
  2 18  2  0
  3 24  1  0
  3 25  1  0
  4 29  1  0
  4 30  1  0
  5 22  1  0
  6 23  1  0
  7 30  1  0
  8 26  1  0
  9 27  1  0
 10 31  1  0
 11 28  1  0
 13 32  1  0
 16 34  2  0
 19 25  1  0
 19 33  1  0
 19 34  1  0
 20 34  1  0
 20 36  2  0
 21 36  1  0
 22 23  1  0
 22 24  1  0
 23 25  1  0
 24 31  1  0
 26 27  1  0
 26 28  1  0
 27 29  1  0
 28 30  1  0
 29 32  1  0
 33 35  2  0
 35 36  1  0
M  END
>  <PUBCHEM_COMPOUND_CID>  (1) 
292

>  <PUBCHEM_COMPOUND_CANONICALIZED>  (1) 
1

>  <PUBCHEM_CACTVS_COMPLEXITY>  (1) 
980

>  <PUBCHEM_CACTVS_HBOND_ACCEPTOR>  (1) 
16

>  <PUBCHEM_CACTVS_HBOND_DONOR>  (1) 
9

>  <PUBCHEM_CACTVS_ROTATABLE_BOND>  (1) 
9

>  <PUBCHEM_CACTVS_SUBSKEYS>  (1) 
AAADceBzPgMAAAAAAAAAAAAAAAAAASAAAAAkQAAAAAAAAAAAAAAAHgAQCCAACBTxgAcBCANABxCoQCJmdICAAAEAAgAIAAAYABCTEAIAgAAOQAAHFgIXAAHwcAYAAAAAAAAAAAAAAAAAAAAAAAAAAAAAAA==

>  <PUBCHEM_IUPAC_OPENEYE_NAME>  (1) 
[[5-(4-amino-2-oxo-pyrimidin-1-yl)-3,4-dihydroxy-tetrahydrofuran-2-yl]methoxy-hydroxy-phosphoryl] [3,4,5-trihydroxy-6-(hydroxymethyl)tetrahydropyran-2-yl] hydrogen phosphate

>  <PUBCHEM_IUPAC_CAS_NAME>  (1) 
[[5-(4-amino-2-oxo-1-pyrimidinyl)-3,4-dihydroxy-2-oxolanyl]methoxy-hydroxyphosphoryl] [3,4,5-trihydroxy-6-(hydroxymethyl)-2-oxanyl] hydrogen phosphate

>  <PUBCHEM_IUPAC_NAME_MARKUP>  (1) 
[[5-(4-amino-2-oxopyrimidin-1-yl)-3,4-dihydroxyoxolan-2-yl]methoxy-hydroxyphosphoryl] [3,4,5-trihydroxy-6-(hydroxymethyl)oxan-2-yl] hydrogen phosphate

>  <PUBCHEM_IUPAC_NAME>  (1) 
[[5-(4-amino-2-oxopyrimidin-1-yl)-3,4-dihydroxyoxolan-2-yl]methoxy-hydroxyphosphoryl] [3,4,5-trihydroxy-6-(hydroxymethyl)oxan-2-yl] hydrogen phosphate

>  <PUBCHEM_IUPAC_SYSTEMATIC_NAME>  (1) 
[[5-(4-azanyl-2-oxidanylidene-pyrimidin-1-yl)-3,4-bis(oxidanyl)oxolan-2-yl]methoxy-oxidanyl-phosphoryl] [6-(hydroxymethyl)-3,4,5-tris(oxidanyl)oxan-2-yl] hydrogen phosphate

>  <PUBCHEM_IUPAC_TRADITIONAL_NAME>  (1) 
[[5-(4-amino-2-keto-pyrimidin-1-yl)-3,4-dihydroxy-tetrahydrofuran-2-yl]methoxy-hydroxy-phosphoryl] (3,4,5-trihydroxy-6-methylol-tetrahydropyran-2-yl) hydrogen phosphate

>  <PUBCHEM_IUPAC_INCHI>  (1) 
InChI=1S/C15H25N3O16P2/c16-7-1-2-18(15(25)17-7)13-11(23)9(21)6(31-13)4-30-35(26,27)34-36(28,29)33-14-12(24)10(22)8(20)5(3-19)32-14/h1-2,5-6,8-14,19-24H,3-4H2,(H,26,27)(H,28,29)(H2,16,17,25)

>  <PUBCHEM_IUPAC_INCHIKEY>  (1) 
CGPHZDRCVSLMCF-UHFFFAOYSA-N

>  <PUBCHEM_XLOGP3>  (1) 
-6.5

>  <PUBCHEM_EXACT_MASS>  (1) 
565.071006

>  <PUBCHEM_MOLECULAR_FORMULA>  (1) 
C15H25N3O16P2

>  <PUBCHEM_MOLECULAR_WEIGHT>  (1) 
565.32

>  <PUBCHEM_OPENEYE_CAN_SMILES>  (1) 
C1=CN(C(=O)N=C1N)C2C(C(C(O2)COP(=O)(O)OP(=O)(O)OC3C(C(C(C(O3)CO)O)O)O)O)O

>  <PUBCHEM_OPENEYE_ISO_SMILES>  (1) 
C1=CN(C(=O)N=C1N)C2C(C(C(O2)COP(=O)(O)OP(=O)(O)OC3C(C(C(C(O3)CO)O)O)O)O)O

>  <PUBCHEM_CACTVS_TPSA>  (1) 
301

>  <PUBCHEM_MONOISOTOPIC_WEIGHT>  (1) 
565.071006

>  <PUBCHEM_TOTAL_CHARGE>  (1) 
0

>  <PUBCHEM_HEAVY_ATOM_COUNT>  (1) 
36

>  <PUBCHEM_ATOM_DEF_STEREO_COUNT>  (1) 
0

>  <PUBCHEM_ATOM_UDEF_STEREO_COUNT>  (1) 
9

>  <PUBCHEM_BOND_DEF_STEREO_COUNT>  (1) 
0

>  <PUBCHEM_BOND_UDEF_STEREO_COUNT>  (1) 
0

>  <PUBCHEM_ISOTOPIC_ATOM_COUNT>  (1) 
0

>  <PUBCHEM_COMPONENT_COUNT>  (1) 
1

>  <PUBCHEM_CACTVS_TAUTO_COUNT>  (1) 
-1

>  <PUBCHEM_COORDINATE_TYPE>  (1) 
1
5
255

>  <PUBCHEM_BONDANNOTATIONS>  (1) 
28  11  3
25  19  3
19  33  8
19  34  8
20  34  8
20  36  8
24  31  3
29  32  3
33  35  8
35  36  8
22  5  3
23  6  3
30  7  3
26  8  3
27  9  3

$$$$
