298
     RDKit          2D

 20 20  0  0  1  0  0  0  0  0999 V2000
   -4.4423    3.0602    0.0000 Cl  0  0  0  0  0  0  0  0  0  0  0  0
   -1.8453    3.1354    0.0000 Cl  0  0  0  0  0  0  0  0  0  0  0  0
   -0.3513   -3.5742    0.0000 O   0  0  0  0  0  0  0  0  0  0  0  0
   -4.3119   -1.4380    0.0000 O   0  0  0  0  0  0  0  0  0  0  0  0
   -4.3554    0.0614    0.0000 O   0  0  0  0  0  0  0  0  0  0  0  0
    6.0326    0.3623    0.0000 O   0  0  0  0  0  0  0  0  0  0  0  0
    4.6689    2.5738    0.0000 O   0  0  0  0  0  0  0  0  0  0  0  0
   -1.7584    0.1366    0.0000 N   0  0  0  0  0  0  0  0  0  0  0  0
    4.7124    1.0744    0.0000 N   0  0  0  0  0  0  0  0  0  0  0  0
   -1.7150   -1.3627    0.0000 C   0  0  0  0  0  0  0  0  0  0  0  0
   -0.3948   -2.0748    0.0000 C   0  0  0  0  0  0  0  0  0  0  0  0
    0.8820   -1.2875    0.0000 C   0  0  0  0  0  0  0  0  0  0  0  0
   -2.9917   -2.1500    0.0000 C   0  0  0  0  0  0  0  0  0  0  0  0
    0.8386    0.2119    0.0000 C   0  0  0  0  0  0  0  0  0  0  0  0
    2.2022   -1.9996    0.0000 C   0  0  0  0  0  0  0  0  0  0  0  0
   -3.0786    0.8487    0.0000 C   0  0  0  0  0  0  0  0  0  0  0  0
    2.1154    0.9992    0.0000 C   0  0  0  0  0  0  0  0  0  0  0  0
    3.4790   -1.2123    0.0000 C   0  0  0  0  0  0  0  0  0  0  0  0
    3.4356    0.2871    0.0000 C   0  0  0  0  0  0  0  0  0  0  0  0
   -3.1220    2.3481    0.0000 C   0  0  0  0  0  0  0  0  0  0  0  0
  1 20  1  0
  2 20  1  0
  3 11  1  0
  4 13  1  0
  5 16  2  0
  6  9  1  0
  7  9  2  0
  8 10  1  0
  8 16  1  0
  9 19  1  0
 10 11  1  0
 10 13  1  0
 11 12  1  0
 12 14  2  0
 12 15  1  0
 14 17  1  0
 15 18  2  0
 16 20  1  0
 17 19  2  0
 18 19  1  0
M  CHG  2   6  -1   9   1
M  END
>  <PUBCHEM_COMPOUND_CID>  (1) 
298

>  <PUBCHEM_COMPOUND_CANONICALIZED>  (1) 
1

>  <PUBCHEM_CACTVS_COMPLEXITY>  (1) 
342

>  <PUBCHEM_CACTVS_HBOND_ACCEPTOR>  (1) 
5

>  <PUBCHEM_CACTVS_HBOND_DONOR>  (1) 
3

>  <PUBCHEM_CACTVS_ROTATABLE_BOND>  (1) 
5

>  <PUBCHEM_CACTVS_SUBSKEYS>  (1) 
AAADccBzOAAGAAAAAAAAAAAAAAAAAAAAAAAwAAAAAAAAAAABAAAAHgIUCAAADD/hmMYwwILQQgCJAiVSUwCCAAAgAgAoiIAIbIpKNiKAkZHEcABl1gGY2AeQ0KEOCAAAAAAAAAAQAAAAAAAAAAAAAAAAAA==

>  <PUBCHEM_IUPAC_OPENEYE_NAME>  (1) 
2,2-dichloro-N-[2-hydroxy-1-(hydroxymethyl)-2-(4-nitrophenyl)ethyl]acetamide

>  <PUBCHEM_IUPAC_CAS_NAME>  (1) 
2,2-dichloro-N-[1,3-dihydroxy-1-(4-nitrophenyl)propan-2-yl]acetamide

>  <PUBCHEM_IUPAC_NAME_MARKUP>  (1) 
2,2-dichloro-<I>N</I>-[1,3-dihydroxy-1-(4-nitrophenyl)propan-2-yl]acetamide

>  <PUBCHEM_IUPAC_NAME>  (1) 
2,2-dichloro-N-[1,3-dihydroxy-1-(4-nitrophenyl)propan-2-yl]acetamide

>  <PUBCHEM_IUPAC_SYSTEMATIC_NAME>  (1) 
2,2-bis(chloranyl)-N-[1-(4-nitrophenyl)-1,3-bis(oxidanyl)propan-2-yl]ethanamide

>  <PUBCHEM_IUPAC_TRADITIONAL_NAME>  (1) 
2,2-dichloro-N-[2-hydroxy-1-methylol-2-(4-nitrophenyl)ethyl]acetamide

>  <PUBCHEM_IUPAC_INCHI>  (1) 
InChI=1S/C11H12Cl2N2O5/c12-10(13)11(18)14-8(5-16)9(17)6-1-3-7(4-2-6)15(19)20/h1-4,8-10,16-17H,5H2,(H,14,18)

>  <PUBCHEM_IUPAC_INCHIKEY>  (1) 
WIIZWVCIJKGZOK-UHFFFAOYSA-N

>  <PUBCHEM_XLOGP3>  (1) 
1.1

>  <PUBCHEM_EXACT_MASS>  (1) 
322.012327

>  <PUBCHEM_MOLECULAR_FORMULA>  (1) 
C11H12Cl2N2O5

>  <PUBCHEM_MOLECULAR_WEIGHT>  (1) 
323.13

>  <PUBCHEM_OPENEYE_CAN_SMILES>  (1) 
C1=CC(=CC=C1C(C(CO)NC(=O)C(Cl)Cl)O)[N+](=O)[O-]

>  <PUBCHEM_OPENEYE_ISO_SMILES>  (1) 
C1=CC(=CC=C1C(C(CO)NC(=O)C(Cl)Cl)O)[N+](=O)[O-]

>  <PUBCHEM_CACTVS_TPSA>  (1) 
115

>  <PUBCHEM_MONOISOTOPIC_WEIGHT>  (1) 
322.012327

>  <PUBCHEM_TOTAL_CHARGE>  (1) 
0

>  <PUBCHEM_HEAVY_ATOM_COUNT>  (1) 
20

>  <PUBCHEM_ATOM_DEF_STEREO_COUNT>  (1) 
0

>  <PUBCHEM_ATOM_UDEF_STEREO_COUNT>  (1) 
2

>  <PUBCHEM_BOND_DEF_STEREO_COUNT>  (1) 
0

>  <PUBCHEM_BOND_UDEF_STEREO_COUNT>  (1) 
0

>  <PUBCHEM_ISOTOPIC_ATOM_COUNT>  (1) 
0

>  <PUBCHEM_COMPONENT_COUNT>  (1) 
1

>  <PUBCHEM_CACTVS_TAUTO_COUNT>  (1) 
-1

>  <PUBCHEM_COORDINATE_TYPE>  (1) 
1
5
255

>  <PUBCHEM_BONDANNOTATIONS>  (1) 
10  13  3
12  14  8
12  15  8
14  17  8
15  18  8
17  19  8
18  19  8
11  3  3

$$$$
