306
     RDKit          2D

 16 16  0  0  1  0  0  0  0  0999 V2000
    1.9363   -1.1912    0.0000 O   0  0  0  0  0  0  0  0  0  0  0  0
    0.3644   -3.7464    0.0000 O   0  0  0  0  0  0  0  0  0  0  0  0
   -1.7035    2.8091    0.0000 O   0  0  0  0  0  0  0  0  0  0  0  0
   -3.9889    1.5733    0.0000 O   0  0  0  0  0  0  0  0  0  0  0  0
    2.7947    2.6835    0.0000 O   0  0  0  0  0  0  0  0  0  0  0  0
    0.5093    1.4478    0.0000 O   0  0  0  0  0  0  0  0  0  0  0  0
    0.4369   -1.1493    0.0000 C   0  0  0  0  0  0  0  0  0  0  0  0
   -0.3491   -2.4269    0.0000 C   0  0  0  0  0  0  0  0  0  0  0  0
   -0.2766    0.1702    0.0000 C   0  0  0  0  0  0  0  0  0  0  0  0
   -1.8485   -2.3850    0.0000 C   0  0  0  0  0  0  0  0  0  0  0  0
   -1.7760    0.2120    0.0000 C   0  0  0  0  0  0  0  0  0  0  0  0
   -2.5620   -1.0656    0.0000 C   0  0  0  0  0  0  0  0  0  0  0  0
   -2.4895    1.5315    0.0000 C   0  0  0  0  0  0  0  0  0  0  0  0
    2.7222    0.0865    0.0000 C   0  0  0  0  0  0  0  0  0  0  0  0
    2.0088    1.4059    0.0000 C   0  0  0  0  0  0  0  0  0  0  0  0
    4.2216    0.0446    0.0000 C   0  0  0  0  0  0  0  0  0  0  0  0
  1  7  1  0
  1 14  1  0
  2  8  1  0
  3 13  1  0
  4 13  2  0
  5 15  1  0
  6 15  2  0
  7  8  1  0
  7  9  1  0
  8 10  1  0
  9 11  2  0
 10 12  2  0
 11 12  1  0
 11 13  1  0
 14 15  1  0
 14 16  2  0
M  END
>  <PUBCHEM_COMPOUND_CID>  (1) 
306

>  <PUBCHEM_COMPOUND_CANONICALIZED>  (1) 
1

>  <PUBCHEM_CACTVS_COMPLEXITY>  (1) 
392

>  <PUBCHEM_CACTVS_HBOND_ACCEPTOR>  (1) 
6

>  <PUBCHEM_CACTVS_HBOND_DONOR>  (1) 
3

>  <PUBCHEM_CACTVS_ROTATABLE_BOND>  (1) 
4

>  <PUBCHEM_CACTVS_SUBSKEYS>  (1) 
AAADccBwOAAAAAAAAAAAAAAAAAAAAAAAAAAgAAAAAAAAAAAAAAAAGgAACAAADBSggAIACAAABgCIAiDSCAIACAAgAAAICAFAAEgJFAAAIQQCUAAAwAALsYIAAAAAAAAAAAAAAAAAAAAAAAAAAAAAAAAAAA==

>  <PUBCHEM_IUPAC_OPENEYE_NAME>  (1) 
3-(1-carboxyvinyloxy)-4-hydroxy-cyclohexa-1,5-diene-1-carboxylic acid

>  <PUBCHEM_IUPAC_CAS_NAME>  (1) 
3-(1-carboxyethenoxy)-4-hydroxy-1-cyclohexa-1,5-dienecarboxylic acid

>  <PUBCHEM_IUPAC_NAME_MARKUP>  (1) 
3-(1-carboxyethenoxy)-4-hydroxycyclohexa-1,5-diene-1-carboxylic acid

>  <PUBCHEM_IUPAC_NAME>  (1) 
3-(1-carboxyethenoxy)-4-hydroxycyclohexa-1,5-diene-1-carboxylic acid

>  <PUBCHEM_IUPAC_SYSTEMATIC_NAME>  (1) 
4-oxidanyl-3-(3-oxidanyl-3-oxidanylidene-prop-1-en-2-yl)oxy-cyclohexa-1,5-diene-1-carboxylic acid

>  <PUBCHEM_IUPAC_TRADITIONAL_NAME>  (1) 
3-(1-carboxyvinyloxy)-4-hydroxy-cyclohexa-1,5-diene-1-carboxylic acid

>  <PUBCHEM_IUPAC_INCHI>  (1) 
InChI=1S/C10H10O6/c1-5(9(12)13)16-8-4-6(10(14)15)2-3-7(8)11/h2-4,7-8,11H,1H2,(H,12,13)(H,14,15)

>  <PUBCHEM_IUPAC_INCHIKEY>  (1) 
WTFXTQVDAKGDEY-UHFFFAOYSA-N

>  <PUBCHEM_XLOGP3_AA>  (1) 
0.2

>  <PUBCHEM_EXACT_MASS>  (1) 
226.047738

>  <PUBCHEM_MOLECULAR_FORMULA>  (1) 
C10H10O6

>  <PUBCHEM_MOLECULAR_WEIGHT>  (1) 
226.18

>  <PUBCHEM_OPENEYE_CAN_SMILES>  (1) 
C=C(C(=O)O)OC1C=C(C=CC1O)C(=O)O

>  <PUBCHEM_OPENEYE_ISO_SMILES>  (1) 
C=C(C(=O)O)OC1C=C(C=CC1O)C(=O)O

>  <PUBCHEM_CACTVS_TPSA>  (1) 
104

>  <PUBCHEM_MONOISOTOPIC_WEIGHT>  (1) 
226.047738

>  <PUBCHEM_TOTAL_CHARGE>  (1) 
0

>  <PUBCHEM_HEAVY_ATOM_COUNT>  (1) 
16

>  <PUBCHEM_ATOM_DEF_STEREO_COUNT>  (1) 
0

>  <PUBCHEM_ATOM_UDEF_STEREO_COUNT>  (1) 
2

>  <PUBCHEM_BOND_DEF_STEREO_COUNT>  (1) 
0

>  <PUBCHEM_BOND_UDEF_STEREO_COUNT>  (1) 
0

>  <PUBCHEM_ISOTOPIC_ATOM_COUNT>  (1) 
0

>  <PUBCHEM_COMPONENT_COUNT>  (1) 
1

>  <PUBCHEM_CACTVS_TAUTO_COUNT>  (1) 
-1

>  <PUBCHEM_COORDINATE_TYPE>  (1) 
1
5
255

>  <PUBCHEM_BONDANNOTATIONS>  (1) 
7  1  3
8  2  3

$$$$
