309
     RDKit          2D

 12 11  0  0  0  0  0  0  0  0999 V2000
   -3.8971   -1.2500    0.0000 O   0  0  0  0  0  0  0  0  0  0  0  0
    1.2990    1.7500    0.0000 O   0  0  0  0  0  0  0  0  0  0  0  0
   -2.5981    1.0000    0.0000 O   0  0  0  0  0  0  0  0  0  0  0  0
   -1.2990    1.7500    0.0000 O   0  0  0  0  0  0  0  0  0  0  0  0
    3.8971   -1.2500    0.0000 O   0  0  0  0  0  0  0  0  0  0  0  0
    2.5981    1.0000    0.0000 O   0  0  0  0  0  0  0  0  0  0  0  0
   -1.2990   -1.2500    0.0000 C   0  0  0  0  0  0  0  0  0  0  0  0
    0.0000   -0.5000    0.0000 C   0  0  0  0  0  0  0  0  0  0  0  0
    1.2990   -1.2500    0.0000 C   0  0  0  0  0  0  0  0  0  0  0  0
   -2.5981   -0.5000    0.0000 C   0  0  0  0  0  0  0  0  0  0  0  0
    0.0000    1.0000    0.0000 C   0  0  0  0  0  0  0  0  0  0  0  0
    2.5981   -0.5000    0.0000 C   0  0  0  0  0  0  0  0  0  0  0  0
  1 10  1  0
  2 11  1  0
  3 10  2  0
  4 11  2  0
  5 12  1  0
  6 12  2  0
  7  8  1  0
  7 10  1  0
  8  9  2  3
  8 11  1  0
  9 12  1  0
M  END
>  <PUBCHEM_COMPOUND_CID>  (1) 
309

>  <PUBCHEM_COMPOUND_CANONICALIZED>  (1) 
1

>  <PUBCHEM_CACTVS_COMPLEXITY>  (1) 
251

>  <PUBCHEM_CACTVS_HBOND_ACCEPTOR>  (1) 
6

>  <PUBCHEM_CACTVS_HBOND_DONOR>  (1) 
3

>  <PUBCHEM_CACTVS_ROTATABLE_BOND>  (1) 
4

>  <PUBCHEM_CACTVS_SUBSKEYS>  (1) 
AAADcYBgOAAAAAAAAAAAAAAAAAAAAAAAAAAAAAAAAAAAAAAAAAAAGgAACAAADACAgAAACAAAAgCIAiDSCAAAAAAgAAAACAEAAEgABBAAAQAAUAAEQAAIEYJDAAAAAAAAAAAAAAAAAAAAAAAAAAAAAAAAAA==

>  <PUBCHEM_IUPAC_OPENEYE_NAME>  (1) 
prop-1-ene-1,2,3-tricarboxylic acid

>  <PUBCHEM_IUPAC_CAS_NAME>  (1) 
1-propene-1,2,3-tricarboxylic acid

>  <PUBCHEM_IUPAC_NAME_MARKUP>  (1) 
prop-1-ene-1,2,3-tricarboxylic acid

>  <PUBCHEM_IUPAC_NAME>  (1) 
prop-1-ene-1,2,3-tricarboxylic acid

>  <PUBCHEM_IUPAC_SYSTEMATIC_NAME>  (1) 
prop-1-ene-1,2,3-tricarboxylic acid

>  <PUBCHEM_IUPAC_TRADITIONAL_NAME>  (1) 
prop-1-ene-1,2,3-tricarboxylic acid

>  <PUBCHEM_IUPAC_INCHI>  (1) 
InChI=1S/C6H6O6/c7-4(8)1-3(6(11)12)2-5(9)10/h1H,2H2,(H,7,8)(H,9,10)(H,11,12)

>  <PUBCHEM_IUPAC_INCHIKEY>  (1) 
GTZCVFVGUGFEME-UHFFFAOYSA-N

>  <PUBCHEM_XLOGP3_AA>  (1) 
-1

>  <PUBCHEM_EXACT_MASS>  (1) 
174.016438

>  <PUBCHEM_MOLECULAR_FORMULA>  (1) 
C6H6O6

>  <PUBCHEM_MOLECULAR_WEIGHT>  (1) 
174.11

>  <PUBCHEM_OPENEYE_CAN_SMILES>  (1) 
C(C(=CC(=O)O)C(=O)O)C(=O)O

>  <PUBCHEM_OPENEYE_ISO_SMILES>  (1) 
C(C(=CC(=O)O)C(=O)O)C(=O)O

>  <PUBCHEM_CACTVS_TPSA>  (1) 
112

>  <PUBCHEM_MONOISOTOPIC_WEIGHT>  (1) 
174.016438

>  <PUBCHEM_TOTAL_CHARGE>  (1) 
0

>  <PUBCHEM_HEAVY_ATOM_COUNT>  (1) 
12

>  <PUBCHEM_ATOM_DEF_STEREO_COUNT>  (1) 
0

>  <PUBCHEM_ATOM_UDEF_STEREO_COUNT>  (1) 
0

>  <PUBCHEM_BOND_DEF_STEREO_COUNT>  (1) 
0

>  <PUBCHEM_BOND_UDEF_STEREO_COUNT>  (1) 
1

>  <PUBCHEM_ISOTOPIC_ATOM_COUNT>  (1) 
0

>  <PUBCHEM_COMPONENT_COUNT>  (1) 
1

>  <PUBCHEM_CACTVS_TAUTO_COUNT>  (1) 
-1

>  <PUBCHEM_COORDINATE_TYPE>  (1) 
1
5
255

>  <PUBCHEM_BONDANNOTATIONS>  (1) 
8  9  1

$$$$
