310
     RDKit          2D

 10  9  0  0  0  0  0  0  0  0999 V2000
   -4.4693    0.9153    0.0000 O   0  0  0  0  0  0  0  0  0  0  0  0
    4.4693   -0.9153    0.0000 O   0  0  0  0  0  0  0  0  0  0  0  0
   -3.4483   -1.4737    0.0000 O   0  0  0  0  0  0  0  0  0  0  0  0
    3.4483    1.4737    0.0000 O   0  0  0  0  0  0  0  0  0  0  0  0
   -0.6897   -0.2947    0.0000 C   0  0  0  0  0  0  0  0  0  0  0  0
    0.6897    0.2947    0.0000 C   0  0  0  0  0  0  0  0  0  0  0  0
   -1.8898    0.6050    0.0000 C   0  0  0  0  0  0  0  0  0  0  0  0
    1.8898   -0.6050    0.0000 C   0  0  0  0  0  0  0  0  0  0  0  0
   -3.2691    0.0155    0.0000 C   0  0  0  0  0  0  0  0  0  0  0  0
    3.2691   -0.0155    0.0000 C   0  0  0  0  0  0  0  0  0  0  0  0
  1  9  1  0
  2 10  1  0
  3  9  2  0
  4 10  2  0
  5  6  1  0
  5  7  2  3
  6  8  2  3
  7  9  1  0
  8 10  1  0
M  END
>  <PUBCHEM_COMPOUND_CID>  (1) 
310

>  <PUBCHEM_COMPOUND_CANONICALIZED>  (1) 
1

>  <PUBCHEM_CACTVS_COMPLEXITY>  (1) 
168

>  <PUBCHEM_CACTVS_HBOND_ACCEPTOR>  (1) 
4

>  <PUBCHEM_CACTVS_HBOND_DONOR>  (1) 
2

>  <PUBCHEM_CACTVS_ROTATABLE_BOND>  (1) 
3

>  <PUBCHEM_CACTVS_SUBSKEYS>  (1) 
AAADcYBgOAAAAAAAAAAAAAAAAAAAAAAAAAAAAAAAAAAAAAAAAAAAGgAACAAACACAgAAACAAAAgCIACDSCAAAAAAAAAAICAAAAEAIBAAAAQAAEAAAAAAAkYAAAAAAAAAAAAAAAAAAAAAAAAAAAAAAAAAAAA==

>  <PUBCHEM_IUPAC_OPENEYE_NAME>  (1) 
hexa-2,4-dienedioic acid

>  <PUBCHEM_IUPAC_CAS_NAME>  (1) 
hexa-2,4-dienedioic acid

>  <PUBCHEM_IUPAC_NAME_MARKUP>  (1) 
hexa-2,4-dienedioic acid

>  <PUBCHEM_IUPAC_NAME>  (1) 
hexa-2,4-dienedioic acid

>  <PUBCHEM_IUPAC_SYSTEMATIC_NAME>  (1) 
hexa-2,4-dienedioic acid

>  <PUBCHEM_IUPAC_TRADITIONAL_NAME>  (1) 
muconic acid

>  <PUBCHEM_IUPAC_INCHI>  (1) 
InChI=1S/C6H6O4/c7-5(8)3-1-2-4-6(9)10/h1-4H,(H,7,8)(H,9,10)

>  <PUBCHEM_IUPAC_INCHIKEY>  (1) 
TXXHDPDFNKHHGW-UHFFFAOYSA-N

>  <PUBCHEM_XLOGP3_AA>  (1) 
0.2

>  <PUBCHEM_EXACT_MASS>  (1) 
142.026609

>  <PUBCHEM_MOLECULAR_FORMULA>  (1) 
C6H6O4

>  <PUBCHEM_MOLECULAR_WEIGHT>  (1) 
142.11

>  <PUBCHEM_OPENEYE_CAN_SMILES>  (1) 
C(=CC(=O)O)C=CC(=O)O

>  <PUBCHEM_OPENEYE_ISO_SMILES>  (1) 
C(=CC(=O)O)C=CC(=O)O

>  <PUBCHEM_CACTVS_TPSA>  (1) 
74.6

>  <PUBCHEM_MONOISOTOPIC_WEIGHT>  (1) 
142.026609

>  <PUBCHEM_TOTAL_CHARGE>  (1) 
0

>  <PUBCHEM_HEAVY_ATOM_COUNT>  (1) 
10

>  <PUBCHEM_ATOM_DEF_STEREO_COUNT>  (1) 
0

>  <PUBCHEM_ATOM_UDEF_STEREO_COUNT>  (1) 
0

>  <PUBCHEM_BOND_DEF_STEREO_COUNT>  (1) 
0

>  <PUBCHEM_BOND_UDEF_STEREO_COUNT>  (1) 
2

>  <PUBCHEM_ISOTOPIC_ATOM_COUNT>  (1) 
0

>  <PUBCHEM_COMPONENT_COUNT>  (1) 
1

>  <PUBCHEM_CACTVS_TAUTO_COUNT>  (1) 
-1

>  <PUBCHEM_COORDINATE_TYPE>  (1) 
1
5
255

>  <PUBCHEM_BONDANNOTATIONS>  (1) 
5  7  1
6  8  1

$$$$
