314
     RDKit          2D

 21 22  0  0  1  0  0  0  0  0999 V2000
   -5.0812    1.1949    0.0000 P   0  0  0  0  0  0  0  0  0  0  0  0
   -0.5349    0.3059    0.0000 O   0  0  0  0  0  0  0  0  0  0  0  0
   -1.6610   -3.4086    0.0000 O   0  0  0  0  0  0  0  0  0  0  0  0
    1.5707   -2.9548    0.0000 O   0  0  0  0  0  0  0  0  0  0  0  0
   -3.6041    0.9343    0.0000 O   0  0  0  0  0  0  0  0  0  0  0  0
    3.2764   -2.0764    0.0000 O   0  0  0  0  0  0  0  0  0  0  0  0
   -5.3419   -0.2823    0.0000 O   0  0  0  0  0  0  0  0  0  0  0  0
   -6.5584    1.4556    0.0000 O   0  0  0  0  0  0  0  0  0  0  0  0
   -4.8206    2.6721    0.0000 O   0  0  0  0  0  0  0  0  0  0  0  0
    2.1377    0.2589    0.0000 N   0  0  0  0  0  0  0  0  0  0  0  0
    4.7295    0.0774    0.0000 N   0  0  0  0  0  0  0  0  0  0  0  0
    6.1825    2.2311    0.0000 N   0  0  0  0  0  0  0  0  0  0  0  0
   -0.9566   -2.0842    0.0000 C   0  0  0  0  0  0  0  0  0  0  0  0
    0.5288   -1.8757    0.0000 C   0  0  0  0  0  0  0  0  0  0  0  0
   -1.6140   -0.7360    0.0000 C   0  0  0  0  0  0  0  0  0  0  0  0
    0.7895   -0.3985    0.0000 C   0  0  0  0  0  0  0  0  0  0  0  0
   -3.0912   -0.4753    0.0000 C   0  0  0  0  0  0  0  0  0  0  0  0
    2.2425    1.7553    0.0000 C   0  0  0  0  0  0  0  0  0  0  0  0
    3.3812   -0.5800    0.0000 C   0  0  0  0  0  0  0  0  0  0  0  0
    3.5908    2.4126    0.0000 C   0  0  0  0  0  0  0  0  0  0  0  0
    4.8343    1.5737    0.0000 C   0  0  0  0  0  0  0  0  0  0  0  0
  1  5  1  0
  1  7  1  0
  1  8  1  0
  1  9  2  0
  2 15  1  0
  2 16  1  0
  3 13  1  0
  4 14  1  0
  5 17  1  0
  6 19  2  0
 10 16  1  0
 10 18  1  0
 10 19  1  0
 11 19  1  0
 11 21  2  0
 12 21  1  0
 13 14  1  0
 13 15  1  0
 14 16  1  0
 15 17  1  0
 18 20  2  0
 20 21  1  0
M  END
>  <PUBCHEM_COMPOUND_CID>  (1) 
314

>  <PUBCHEM_COMPOUND_CANONICALIZED>  (1) 
1

>  <PUBCHEM_CACTVS_COMPLEXITY>  (1) 
531

>  <PUBCHEM_CACTVS_HBOND_ACCEPTOR>  (1) 
8

>  <PUBCHEM_CACTVS_HBOND_DONOR>  (1) 
5

>  <PUBCHEM_CACTVS_ROTATABLE_BOND>  (1) 
4

>  <PUBCHEM_CACTVS_SUBSKEYS>  (1) 
AAADccBzPAIAAAAAAAAAAAAAAAAAASAAAAAgAAAAAAAAAAAAAAAAHgAQCCAACBThgAYBAANABxCoQCJmdICAAAEAAgAIAAAYABCDEAIAgAAOQAAHFgITAADwMAIAAAAAAAAAAAAAAAAAAAAAAAAAAAAAAA==

>  <PUBCHEM_IUPAC_OPENEYE_NAME>  (1) 
[5-(4-amino-2-oxo-pyrimidin-1-yl)-3,4-dihydroxy-tetrahydrofuran-2-yl]methyl dihydrogen phosphate

>  <PUBCHEM_IUPAC_CAS_NAME>  (1) 
[5-(4-amino-2-oxo-1-pyrimidinyl)-3,4-dihydroxy-2-oxolanyl]methyl dihydrogen phosphate

>  <PUBCHEM_IUPAC_NAME_MARKUP>  (1) 
[5-(4-amino-2-oxopyrimidin-1-yl)-3,4-dihydroxyoxolan-2-yl]methyl dihydrogen phosphate

>  <PUBCHEM_IUPAC_NAME>  (1) 
[5-(4-amino-2-oxopyrimidin-1-yl)-3,4-dihydroxyoxolan-2-yl]methyl dihydrogen phosphate

>  <PUBCHEM_IUPAC_SYSTEMATIC_NAME>  (1) 
[5-(4-azanyl-2-oxidanylidene-pyrimidin-1-yl)-3,4-bis(oxidanyl)oxolan-2-yl]methyl dihydrogen phosphate

>  <PUBCHEM_IUPAC_TRADITIONAL_NAME>  (1) 
[5-(4-amino-2-keto-pyrimidin-1-yl)-3,4-dihydroxy-tetrahydrofuran-2-yl]methyl dihydrogen phosphate

>  <PUBCHEM_IUPAC_INCHI>  (1) 
InChI=1S/C9H14N3O8P/c10-5-1-2-12(9(15)11-5)8-7(14)6(13)4(20-8)3-19-21(16,17)18/h1-2,4,6-8,13-14H,3H2,(H2,10,11,15)(H2,16,17,18)

>  <PUBCHEM_IUPAC_INCHIKEY>  (1) 
IERHLVCPSMICTF-UHFFFAOYSA-N

>  <PUBCHEM_XLOGP3>  (1) 
-3.4

>  <PUBCHEM_EXACT_MASS>  (1) 
323.051851

>  <PUBCHEM_MOLECULAR_FORMULA>  (1) 
C9H14N3O8P

>  <PUBCHEM_MOLECULAR_WEIGHT>  (1) 
323.2

>  <PUBCHEM_OPENEYE_CAN_SMILES>  (1) 
C1=CN(C(=O)N=C1N)C2C(C(C(O2)COP(=O)(O)O)O)O

>  <PUBCHEM_OPENEYE_ISO_SMILES>  (1) 
C1=CN(C(=O)N=C1N)C2C(C(C(O2)COP(=O)(O)O)O)O

>  <PUBCHEM_CACTVS_TPSA>  (1) 
175

>  <PUBCHEM_MONOISOTOPIC_WEIGHT>  (1) 
323.051851

>  <PUBCHEM_TOTAL_CHARGE>  (1) 
0

>  <PUBCHEM_HEAVY_ATOM_COUNT>  (1) 
21

>  <PUBCHEM_ATOM_DEF_STEREO_COUNT>  (1) 
0

>  <PUBCHEM_ATOM_UDEF_STEREO_COUNT>  (1) 
4

>  <PUBCHEM_BOND_DEF_STEREO_COUNT>  (1) 
0

>  <PUBCHEM_BOND_UDEF_STEREO_COUNT>  (1) 
0

>  <PUBCHEM_ISOTOPIC_ATOM_COUNT>  (1) 
0

>  <PUBCHEM_COMPONENT_COUNT>  (1) 
1

>  <PUBCHEM_CACTVS_TAUTO_COUNT>  (1) 
-1

>  <PUBCHEM_COORDINATE_TYPE>  (1) 
1
5
255

>  <PUBCHEM_BONDANNOTATIONS>  (1) 
16  10  3
10  18  8
10  19  8
11  19  8
11  21  8
15  17  3
18  20  8
20  21  8
13  3  3
14  4  3

$$$$
