316
     RDKit          2D

 41 43  0  0  1  0  0  0  0  0999 V2000
    1.3141   -1.7894    0.0000 P   0  0  0  0  0  0  0  0  0  0  0  0
    3.0112   -0.7360    0.0000 O   0  0  0  0  0  0  0  0  0  0  0  0
    2.5680   -2.6127    0.0000 O   0  0  0  0  0  0  0  0  0  0  0  0
   -3.9366   -1.3476    0.0000 O   0  0  0  0  0  0  0  0  0  0  0  0
    7.4804   -0.2101    0.0000 O   0  0  0  0  0  0  0  0  0  0  0  0
    3.3006    3.2221    0.0000 O   0  0  0  0  0  0  0  0  0  0  0  0
    0.0602   -0.9662    0.0000 O   0  0  0  0  0  0  0  0  0  0  0  0
   -1.4341    1.6193    0.0000 O   0  0  0  0  0  0  0  0  0  0  0  0
    0.6248    0.2912    0.0000 O   0  0  0  0  0  0  0  0  0  0  0  0
   -4.5819    2.4798    0.0000 O   0  0  0  0  0  0  0  0  0  0  0  0
    3.3107   -4.4670    0.0000 O   0  0  0  0  0  0  0  0  0  0  0  0
    5.7991   -3.7199    0.0000 O   0  0  0  0  0  0  0  0  0  0  0  0
    1.8095   -0.3736    0.0000 O   0  0  0  0  0  0  0  0  0  0  0  0
   -1.1685    2.6962    0.0000 O   0  0  0  0  0  0  0  0  0  0  0  0
    0.4908   -3.0433    0.0000 O   0  0  0  0  0  0  0  0  0  0  0  0
    8.0734    1.1677    0.0000 O   0  0  0  0  0  0  0  0  0  0  0  0
   -6.4959    2.3470    0.0000 O   0  0  0  0  0  0  0  0  0  0  0  0
    5.6870    2.1949    0.0000 N   0  0  0  0  0  0  0  0  0  0  0  0
   -6.3730   -0.2481    0.0000 N   0  0  0  0  0  0  0  0  0  0  0  0
   -8.6820    0.9430    0.0000 N   0  0  0  0  0  0  0  0  0  0  0  0
  -10.8680   -0.4610    0.0000 N   0  0  0  0  0  0  0  0  0  0  0  0
    5.0940    0.8171    0.0000 C   0  0  0  0  0  0  0  0  0  0  0  0
    3.6043    0.6418    0.0000 C   0  0  0  0  0  0  0  0  0  0  0  0
    5.9907   -0.3854    0.0000 C   0  0  0  0  0  0  0  0  0  0  0  0
    5.3976   -1.7632    0.0000 C   0  0  0  0  0  0  0  0  0  0  0  0
    3.9079   -1.9385    0.0000 C   0  0  0  0  0  0  0  0  0  0  0  0
    2.7076    1.8443    0.0000 C   0  0  0  0  0  0  0  0  0  0  0  0
   -2.5336   -0.8171    0.0000 C   0  0  0  0  0  0  0  0  0  0  0  0
   -2.6045    0.6812    0.0000 C   0  0  0  0  0  0  0  0  0  0  0  0
    1.2179    1.6690    0.0000 C   0  0  0  0  0  0  0  0  0  0  0  0
   -4.0514    1.0767    0.0000 C   0  0  0  0  0  0  0  0  0  0  0  0
   -4.8747   -0.1772    0.0000 C   0  0  0  0  0  0  0  0  0  0  0  0
    4.3393   -3.3751    0.0000 C   0  0  0  0  0  0  0  0  0  0  0  0
   -1.2797   -1.6404    0.0000 C   0  0  0  0  0  0  0  0  0  0  0  0
    0.3212    2.8715    0.0000 C   0  0  0  0  0  0  0  0  0  0  0  0
    7.1768    2.3702    0.0000 C   0  0  0  0  0  0  0  0  0  0  0  0
   -7.0607   -1.5812    0.0000 C   0  0  0  0  0  0  0  0  0  0  0  0
    7.7698    3.7480    0.0000 C   0  0  0  0  0  0  0  0  0  0  0  0
   -7.1837    1.0140    0.0000 C   0  0  0  0  0  0  0  0  0  0  0  0
   -8.5591   -1.6522    0.0000 C   0  0  0  0  0  0  0  0  0  0  0  0
   -9.3697   -0.3901    0.0000 C   0  0  0  0  0  0  0  0  0  0  0  0
  1  3  1  0
  1  7  1  0
  1 13  1  0
  1 15  2  0
  2 23  1  0
  2 26  1  0
  3 26  1  0
  4 28  1  0
  4 32  1  0
  5 24  1  0
  6 27  1  0
  7 34  1  0
  8 29  1  0
  9 30  1  0
 10 31  1  0
 11 33  1  0
 12 33  2  0
 14 35  1  0
 16 36  2  0
 17 39  2  0
 18 22  1  0
 18 36  1  0
 19 32  1  0
 19 37  1  0
 19 39  1  0
 20 39  1  0
 20 41  2  0
 21 41  1  0
 22 23  1  0
 22 24  1  0
 23 27  1  0
 24 25  1  0
 25 26  1  0
 26 33  1  0
 27 30  1  0
 28 29  1  0
 28 34  1  0
 29 31  1  0
 30 35  1  0
 31 32  1  0
 36 38  1  0
 37 40  2  0
 40 41  1  0
M  END
>  <PUBCHEM_COMPOUND_CID>  (1) 
316

>  <PUBCHEM_COMPOUND_CANONICALIZED>  (1) 
1

>  <PUBCHEM_CACTVS_COMPLEXITY>  (1) 
1120

>  <PUBCHEM_CACTVS_HBOND_ACCEPTOR>  (1) 
16

>  <PUBCHEM_CACTVS_HBOND_DONOR>  (1) 
10

>  <PUBCHEM_CACTVS_ROTATABLE_BOND>  (1) 
11

>  <PUBCHEM_CACTVS_SUBSKEYS>  (1) 
AAADceB7vgIAAAAAAAAAAAAAAAAAASAAAAAkQAAAAAAAAAAAAAAAHgAQCCAACDzhgAYDCAPABxCoQCP2fIKAAAEAAgAIAIFYABCTEBIAgAQPQAAHFgKXAAH6+aeQAAAAAAAAAAAAAAAAAAAAAAAAAAAAAA==

>  <PUBCHEM_IUPAC_OPENEYE_NAME>  (1) 
5-acetamido-2-[[5-(4-amino-2-oxo-pyrimidin-1-yl)-3,4-dihydroxy-tetrahydrofuran-2-yl]methoxy-hydroxy-phosphoryl]oxy-4-hydroxy-6-(1,2,3-trihydroxypropyl)tetrahydropyran-2-carboxylic acid

>  <PUBCHEM_IUPAC_CAS_NAME>  (1) 
5-acetamido-2-[[5-(4-amino-2-oxo-1-pyrimidinyl)-3,4-dihydroxy-2-oxolanyl]methoxy-hydroxyphosphoryl]oxy-4-hydroxy-6-(1,2,3-trihydroxypropyl)-2-oxanecarboxylic acid

>  <PUBCHEM_IUPAC_NAME_MARKUP>  (1) 
5-acetamido-2-[[5-(4-amino-2-oxopyrimidin-1-yl)-3,4-dihydroxyoxolan-2-yl]methoxy-hydroxyphosphoryl]oxy-4-hydroxy-6-(1,2,3-trihydroxypropyl)oxane-2-carboxylic acid

>  <PUBCHEM_IUPAC_NAME>  (1) 
5-acetamido-2-[[5-(4-amino-2-oxopyrimidin-1-yl)-3,4-dihydroxyoxolan-2-yl]methoxy-hydroxyphosphoryl]oxy-4-hydroxy-6-(1,2,3-trihydroxypropyl)oxane-2-carboxylic acid

>  <PUBCHEM_IUPAC_SYSTEMATIC_NAME>  (1) 
5-acetamido-2-[[5-(4-azanyl-2-oxidanylidene-pyrimidin-1-yl)-3,4-bis(oxidanyl)oxolan-2-yl]methoxy-oxidanyl-phosphoryl]oxy-4-oxidanyl-6-[1,2,3-tris(oxidanyl)propyl]oxane-2-carboxylic acid

>  <PUBCHEM_IUPAC_TRADITIONAL_NAME>  (1) 
5-acetamido-2-[[5-(4-amino-2-keto-pyrimidin-1-yl)-3,4-dihydroxy-tetrahydrofuran-2-yl]methoxy-hydroxy-phosphoryl]oxy-4-hydroxy-6-(1,2,3-trihydroxypropyl)tetrahydropyran-2-carboxylic acid

>  <PUBCHEM_IUPAC_INCHI>  (1) 
InChI=1S/C20H31N4O16P/c1-7(26)22-12-8(27)4-20(18(32)33,39-16(12)13(29)9(28)5-25)40-41(35,36)37-6-10-14(30)15(31)17(38-10)24-3-2-11(21)23-19(24)34/h2-3,8-10,12-17,25,27-31H,4-6H2,1H3,(H,22,26)(H,32,33)(H,35,36)(H2,21,23,34)

>  <PUBCHEM_IUPAC_INCHIKEY>  (1) 
TXCIAUNLDRJGJZ-UHFFFAOYSA-N

>  <PUBCHEM_XLOGP3_AA>  (1) 
-6.7

>  <PUBCHEM_EXACT_MASS>  (1) 
614.147268

>  <PUBCHEM_MOLECULAR_FORMULA>  (1) 
C20H31N4O16P

>  <PUBCHEM_MOLECULAR_WEIGHT>  (1) 
614.5

>  <PUBCHEM_OPENEYE_CAN_SMILES>  (1) 
CC(=O)NC1C(CC(OC1C(C(CO)O)O)(C(=O)O)OP(=O)(O)OCC2C(C(C(O2)N3C=CC(=NC3=O)N)O)O)O

>  <PUBCHEM_OPENEYE_ISO_SMILES>  (1) 
CC(=O)NC1C(CC(OC1C(C(CO)O)O)(C(=O)O)OP(=O)(O)OCC2C(C(C(O2)N3C=CC(=NC3=O)N)O)O)O

>  <PUBCHEM_CACTVS_TPSA>  (1) 
321

>  <PUBCHEM_MONOISOTOPIC_WEIGHT>  (1) 
614.147268

>  <PUBCHEM_TOTAL_CHARGE>  (1) 
0

>  <PUBCHEM_HEAVY_ATOM_COUNT>  (1) 
41

>  <PUBCHEM_ATOM_DEF_STEREO_COUNT>  (1) 
0

>  <PUBCHEM_ATOM_UDEF_STEREO_COUNT>  (1) 
10

>  <PUBCHEM_BOND_DEF_STEREO_COUNT>  (1) 
0

>  <PUBCHEM_BOND_UDEF_STEREO_COUNT>  (1) 
0

>  <PUBCHEM_ISOTOPIC_ATOM_COUNT>  (1) 
0

>  <PUBCHEM_COMPONENT_COUNT>  (1) 
1

>  <PUBCHEM_CACTVS_TAUTO_COUNT>  (1) 
-1

>  <PUBCHEM_COORDINATE_TYPE>  (1) 
1
5
255

>  <PUBCHEM_BONDANNOTATIONS>  (1) 
31  10  3
22  18  3
32  19  3
19  37  8
19  39  8
23  2  3
20  39  8
20  41  8
26  33  3
28  34  3
37  40  8
40  41  8
24  5  3
27  6  3
29  8  3
30  9  3

$$$$
