317
     RDKit          2D

 48 50  0  0  1  0  0  0  0  0999 V2000
  -16.6946   -0.9689    0.0000 S   0  0  0  0  0  0  0  0  0  0  0  0
    1.7987   -1.7996    0.0000 P   0  0  0  0  0  0  0  0  0  0  0  0
    1.2582    3.2078    0.0000 P   0  0  0  0  0  0  0  0  0  0  0  0
   -1.3343    3.0388    0.0000 P   0  0  0  0  0  0  0  0  0  0  0  0
    5.3737    1.0811    0.0000 O   0  0  0  0  0  0  0  0  0  0  0  0
    3.2524   -2.1693    0.0000 O   0  0  0  0  0  0  0  0  0  0  0  0
    6.4818   -2.6387    0.0000 O   0  0  0  0  0  0  0  0  0  0  0  0
    2.6033    2.5439    0.0000 O   0  0  0  0  0  0  0  0  0  0  0  0
   -2.5818    2.2059    0.0000 O   0  0  0  0  0  0  0  0  0  0  0  0
   -0.0868    3.8717    0.0000 O   0  0  0  0  0  0  0  0  0  0  0  0
    2.1684   -0.3459    0.0000 O   0  0  0  0  0  0  0  0  0  0  0  0
    0.3450   -1.4298    0.0000 O   0  0  0  0  0  0  0  0  0  0  0  0
    1.4289   -3.2533    0.0000 O   0  0  0  0  0  0  0  0  0  0  0  0
   -4.8817   -2.4536    0.0000 O   0  0  0  0  0  0  0  0  0  0  0  0
    1.9221    4.5529    0.0000 O   0  0  0  0  0  0  0  0  0  0  0  0
    0.5943    1.8627    0.0000 O   0  0  0  0  0  0  0  0  0  0  0  0
   -0.5014    1.7913    0.0000 O   0  0  0  0  0  0  0  0  0  0  0  0
   -6.4219    1.2040    0.0000 O   0  0  0  0  0  0  0  0  0  0  0  0
   -2.1673    4.2863    0.0000 O   0  0  0  0  0  0  0  0  0  0  0  0
  -11.6071    0.8660    0.0000 O   0  0  0  0  0  0  0  0  0  0  0  0
    7.9262    0.2876    0.0000 N   0  0  0  0  0  0  0  0  0  0  0  0
   10.0745    1.4169    0.0000 N   0  0  0  0  0  0  0  0  0  0  0  0
    8.9409   -2.2583    0.0000 N   0  0  0  0  0  0  0  0  0  0  0  0
   11.5369   -2.3612    0.0000 N   0  0  0  0  0  0  0  0  0  0  0  0
   -7.5718   -1.1258    0.0000 N   0  0  0  0  0  0  0  0  0  0  0  0
   12.9240   -0.1645    0.0000 N   0  0  0  0  0  0  0  0  0  0  0  0
  -12.7570   -1.4638    0.0000 N   0  0  0  0  0  0  0  0  0  0  0  0
    4.2995   -1.0952    0.0000 C   0  0  0  0  0  0  0  0  0  0  0  0
    5.7839   -1.3110    0.0000 C   0  0  0  0  0  0  0  0  0  0  0  0
    4.0460    0.3832    0.0000 C   0  0  0  0  0  0  0  0  0  0  0  0
    6.4478    0.0341    0.0000 C   0  0  0  0  0  0  0  0  0  0  0  0
    2.7009    1.0471    0.0000 C   0  0  0  0  0  0  0  0  0  0  0  0
    9.0003   -0.7595    0.0000 C   0  0  0  0  0  0  0  0  0  0  0  0
    8.5901    1.6326    0.0000 C   0  0  0  0  0  0  0  0  0  0  0  0
   -3.7318   -0.1238    0.0000 C   0  0  0  0  0  0  0  0  0  0  0  0
   10.3280   -0.0615    0.0000 C   0  0  0  0  0  0  0  0  0  0  0  0
   -4.9793   -0.9568    0.0000 C   0  0  0  0  0  0  0  0  0  0  0  0
   -2.4843    0.7091    0.0000 C   0  0  0  0  0  0  0  0  0  0  0  0
   -4.5647    1.1237    0.0000 C   0  0  0  0  0  0  0  0  0  0  0  0
   -2.8988   -1.3713    0.0000 C   0  0  0  0  0  0  0  0  0  0  0  0
   11.5963   -0.8624    0.0000 C   0  0  0  0  0  0  0  0  0  0  0  0
   -6.3243   -0.2929    0.0000 C   0  0  0  0  0  0  0  0  0  0  0  0
   10.2092   -3.0592    0.0000 C   0  0  0  0  0  0  0  0  0  0  0  0
   -8.9169   -0.4619    0.0000 C   0  0  0  0  0  0  0  0  0  0  0  0
  -10.1644   -1.2948    0.0000 C   0  0  0  0  0  0  0  0  0  0  0  0
  -11.5095   -0.6309    0.0000 C   0  0  0  0  0  0  0  0  0  0  0  0
  -14.1021   -0.7999    0.0000 C   0  0  0  0  0  0  0  0  0  0  0  0
  -15.3496   -1.6328    0.0000 C   0  0  0  0  0  0  0  0  0  0  0  0
  1 48  1  0
  2  6  1  0
  2 11  1  0
  2 12  1  0
  2 13  2  0
  3  8  1  0
  3 10  1  0
  3 15  1  0
  3 16  2  0
  4  9  1  0
  4 10  1  0
  4 17  1  0
  4 19  2  0
  5 30  1  0
  5 31  1  0
  6 28  1  0
  7 29  1  0
  8 32  1  0
  9 38  1  0
 14 37  1  0
 18 42  2  0
 20 46  2  0
 21 31  1  0
 21 33  1  0
 21 34  1  0
 22 34  2  0
 22 36  1  0
 23 33  1  0
 23 43  2  0
 24 41  2  0
 24 43  1  0
 25 42  1  0
 25 44  1  0
 26 41  1  0
 27 46  1  0
 27 47  1  0
 28 29  1  0
 28 30  1  0
 29 31  1  0
 30 32  1  0
 33 36  2  0
 35 37  1  0
 35 38  1  0
 35 39  1  0
 35 40  1  0
 36 41  1  0
 37 42  1  0
 44 45  1  0
 45 46  1  0
 47 48  1  0
M  END
>  <PUBCHEM_COMPOUND_CID>  (1) 
317

>  <PUBCHEM_COMPOUND_CANONICALIZED>  (1) 
1

>  <PUBCHEM_CACTVS_COMPLEXITY>  (1) 
1270

>  <PUBCHEM_CACTVS_HBOND_ACCEPTOR>  (1) 
21

>  <PUBCHEM_CACTVS_HBOND_DONOR>  (1) 
10

>  <PUBCHEM_CACTVS_ROTATABLE_BOND>  (1) 
18

>  <PUBCHEM_CACTVS_SUBSKEYS>  (1) 
AAADcfB7vgNAAAAAAAAAAAAAAAAAAWJAAAAsAAAAAAAAAFgB+AAAHgQQCCAADhzl1waH8L/MFxSoQQdxdIKAgC0REKABUKFoVBCDWBpAyEAeRAgPFgLTACDyMAIJAAAAAAAAAAAAAAAAAAAAAAAAAAAAAA==

>  <PUBCHEM_IUPAC_OPENEYE_NAME>  (1) 
[[5-(6-aminopurin-9-yl)-4-hydroxy-3-phosphonooxy-tetrahydrofuran-2-yl]methoxy-hydroxy-phosphoryl] [3-hydroxy-2,2-dimethyl-4-oxo-4-[[3-oxo-3-(2-sulfanylethylamino)propyl]amino]butyl] hydrogen phosphate

>  <PUBCHEM_IUPAC_CAS_NAME>  (1) 
[[5-(6-aminopurin-9-yl)-4-hydroxy-3-phosphonooxy-2-oxolanyl]methoxy-hydroxyphosphoryl] [3-hydroxy-4-[[3-(2-mercaptoethylamino)-3-oxopropyl]amino]-2,2-dimethyl-4-oxobutyl] hydrogen phosphate

>  <PUBCHEM_IUPAC_NAME_MARKUP>  (1) 
[[5-(6-aminopurin-9-yl)-4-hydroxy-3-phosphonooxyoxolan-2-yl]methoxy-hydroxyphosphoryl] [3-hydroxy-2,2-dimethyl-4-oxo-4-[[3-oxo-3-(2-sulfanylethylamino)propyl]amino]butyl] hydrogen phosphate

>  <PUBCHEM_IUPAC_NAME>  (1) 
[[5-(6-aminopurin-9-yl)-4-hydroxy-3-phosphonooxyoxolan-2-yl]methoxy-hydroxyphosphoryl] [3-hydroxy-2,2-dimethyl-4-oxo-4-[[3-oxo-3-(2-sulfanylethylamino)propyl]amino]butyl] hydrogen phosphate

>  <PUBCHEM_IUPAC_SYSTEMATIC_NAME>  (1) 
[[5-(6-aminopurin-9-yl)-4-oxidanyl-3-phosphonooxy-oxolan-2-yl]methoxy-oxidanyl-phosphoryl] [2,2-dimethyl-3-oxidanyl-4-oxidanylidene-4-[[3-oxidanylidene-3-(2-sulfanylethylamino)propyl]amino]butyl] hydrogen phosphate

>  <PUBCHEM_IUPAC_TRADITIONAL_NAME>  (1) 
[(5-adenin-9-yl-4-hydroxy-3-phosphonooxy-tetrahydrofuran-2-yl)methoxy-hydroxy-phosphoryl] [3-hydroxy-4-keto-4-[[3-keto-3-(2-mercaptoethylamino)propyl]amino]-2,2-dimethyl-butyl] hydrogen phosphate

>  <PUBCHEM_IUPAC_INCHI>  (1) 
InChI=1S/C21H36N7O16P3S/c1-21(2,16(31)19(32)24-4-3-12(29)23-5-6-48)8-41-47(38,39)44-46(36,37)40-7-11-15(43-45(33,34)35)14(30)20(42-11)28-10-27-13-17(22)25-9-26-18(13)28/h9-11,14-16,20,30-31,48H,3-8H2,1-2H3,(H,23,29)(H,24,32)(H,36,37)(H,38,39)(H2,22,25,26)(H2,33,34,35)

>  <PUBCHEM_IUPAC_INCHIKEY>  (1) 
RGJOEKWQDUBAIZ-UHFFFAOYSA-N

>  <PUBCHEM_XLOGP3>  (1) 
-5.8

>  <PUBCHEM_EXACT_MASS>  (1) 
767.11521

>  <PUBCHEM_MOLECULAR_FORMULA>  (1) 
C21H36N7O16P3S

>  <PUBCHEM_MOLECULAR_WEIGHT>  (1) 
767.5

>  <PUBCHEM_OPENEYE_CAN_SMILES>  (1) 
CC(C)(COP(=O)(O)OP(=O)(O)OCC1C(C(C(O1)N2C=NC3=C(N=CN=C32)N)O)OP(=O)(O)O)C(C(=O)NCCC(=O)NCCS)O

>  <PUBCHEM_OPENEYE_ISO_SMILES>  (1) 
CC(C)(COP(=O)(O)OP(=O)(O)OCC1C(C(C(O1)N2C=NC3=C(N=CN=C32)N)O)OP(=O)(O)O)C(C(=O)NCCC(=O)NCCS)O

>  <PUBCHEM_CACTVS_TPSA>  (1) 
348

>  <PUBCHEM_MONOISOTOPIC_WEIGHT>  (1) 
767.11521

>  <PUBCHEM_TOTAL_CHARGE>  (1) 
0

>  <PUBCHEM_HEAVY_ATOM_COUNT>  (1) 
48

>  <PUBCHEM_ATOM_DEF_STEREO_COUNT>  (1) 
0

>  <PUBCHEM_ATOM_UDEF_STEREO_COUNT>  (1) 
5

>  <PUBCHEM_BOND_DEF_STEREO_COUNT>  (1) 
0

>  <PUBCHEM_BOND_UDEF_STEREO_COUNT>  (1) 
0

>  <PUBCHEM_ISOTOPIC_ATOM_COUNT>  (1) 
0

>  <PUBCHEM_COMPONENT_COUNT>  (1) 
1

>  <PUBCHEM_CACTVS_TAUTO_COUNT>  (1) 
-1

>  <PUBCHEM_COORDINATE_TYPE>  (1) 
1
5
255

>  <PUBCHEM_BONDANNOTATIONS>  (1) 
37  14  3
31  21  3
21  33  8
21  34  8
22  34  8
22  36  8
23  33  8
23  43  8
24  41  8
24  43  8
30  32  3
33  36  8
36  41  8
28  6  3
29  7  3

$$$$
