320
     RDKit          2D

 20 22  0  0  1  0  0  0  0  0999 V2000
    2.5602    1.1490    0.0000 O   0  0  0  0  0  0  0  0  0  0  0  0
    0.7405   -2.2794    0.0000 O   0  0  0  0  0  0  0  0  0  0  0  0
    3.9991   -2.4559    0.0000 O   0  0  0  0  0  0  0  0  0  0  0  0
    5.5645    2.0369    0.0000 O   0  0  0  0  0  0  0  0  0  0  0  0
   -4.9120    1.8664    0.0000 O   0  0  0  0  0  0  0  0  0  0  0  0
   -0.0987    0.8742    0.0000 N   0  0  0  0  0  0  0  0  0  0  0  0
   -1.9822    2.4048    0.0000 N   0  0  0  0  0  0  0  0  0  0  0  0
   -1.3719   -1.4406    0.0000 N   0  0  0  0  0  0  0  0  0  0  0  0
   -4.0125   -2.0177    0.0000 N   0  0  0  0  0  0  0  0  0  0  0  0
    1.3007    0.3342    0.0000 C   0  0  0  0  0  0  0  0  0  0  0  0
    1.6865   -1.1154    0.0000 C   0  0  0  0  0  0  0  0  0  0  0  0
    3.1843   -1.1965    0.0000 C   0  0  0  0  0  0  0  0  0  0  0  0
    3.7242    0.2030    0.0000 C   0  0  0  0  0  0  0  0  0  0  0  0
    5.1738    0.5887    0.0000 C   0  0  0  0  0  0  0  0  0  0  0  0
   -1.3581    0.0594    0.0000 C   0  0  0  0  0  0  0  0  0  0  0  0
   -2.5222    1.0054    0.0000 C   0  0  0  0  0  0  0  0  0  0  0  0
   -0.4844    2.3237    0.0000 C   0  0  0  0  0  0  0  0  0  0  0  0
   -3.9876    0.6851    0.0000 C   0  0  0  0  0  0  0  0  0  0  0  0
   -4.6508   -0.6603    0.0000 C   0  0  0  0  0  0  0  0  0  0  0  0
   -2.5532   -2.3650    0.0000 C   0  0  0  0  0  0  0  0  0  0  0  0
  1 10  1  0
  1 13  1  0
  2 11  1  0
  3 12  1  0
  4 14  1  0
  5 18  1  0
  6 10  1  0
  6 15  1  0
  6 17  1  0
  7 16  1  0
  7 17  2  0
  8 15  1  0
  8 20  1  0
  9 19  1  0
  9 20  2  0
 10 11  1  0
 11 12  1  0
 12 13  1  0
 13 14  1  0
 15 16  2  0
 16 18  1  0
 18 19  1  0
M  END
>  <PUBCHEM_COMPOUND_CID>  (1) 
320

>  <PUBCHEM_COMPOUND_CANONICALIZED>  (1) 
1

>  <PUBCHEM_CACTVS_COMPLEXITY>  (1) 
384

>  <PUBCHEM_CACTVS_HBOND_ACCEPTOR>  (1) 
7

>  <PUBCHEM_CACTVS_HBOND_DONOR>  (1) 
5

>  <PUBCHEM_CACTVS_ROTATABLE_BOND>  (1) 
2

>  <PUBCHEM_CACTVS_SUBSKEYS>  (1) 
AAADceBzuAAAAAAAAAAAAAAAAAAAAWJAAAAAAAAABAAAAACBgAAAHgAQCAAACBzhlgYFsBfMFgCgAQZhZAQAgC0xEKABUIA4WAiDfAJAyAEeQAAPAALTUCDwMAIAAAAAAAAAAAAAAAAAAAAAAAAAAAAAAA==

>  <PUBCHEM_IUPAC_OPENEYE_NAME>  (1) 
2-(8-hydroxy-7,8-dihydro-4H-imidazo[4,5-d][1,3]diazepin-3-yl)-5-(hydroxymethyl)tetrahydrofuran-3,4-diol

>  <PUBCHEM_IUPAC_CAS_NAME>  (1) 
2-(8-hydroxy-7,8-dihydro-4H-imidazo[4,5-d][1,3]diazepin-3-yl)-5-(hydroxymethyl)oxolane-3,4-diol

>  <PUBCHEM_IUPAC_NAME_MARKUP>  (1) 
2-(8-hydroxy-7,8-dihydro-4<I>H</I>-imidazo[4,5-d][1,3]diazepin-3-yl)-5-(hydroxymethyl)oxolane-3,4-diol

>  <PUBCHEM_IUPAC_NAME>  (1) 
2-(8-hydroxy-7,8-dihydro-4H-imidazo[4,5-d][1,3]diazepin-3-yl)-5-(hydroxymethyl)oxolane-3,4-diol

>  <PUBCHEM_IUPAC_SYSTEMATIC_NAME>  (1) 
2-(hydroxymethyl)-5-(8-oxidanyl-7,8-dihydro-4H-imidazo[4,5-d][1,3]diazepin-3-yl)oxolane-3,4-diol

>  <PUBCHEM_IUPAC_TRADITIONAL_NAME>  (1) 
2-(8-hydroxy-7,8-dihydro-4H-imidazo[4,5-d][1,3]diazepin-3-yl)-5-methylol-tetrahydrofuran-3,4-diol

>  <PUBCHEM_IUPAC_INCHI>  (1) 
InChI=1S/C11H16N4O5/c16-2-6-8(18)9(19)11(20-6)15-4-14-7-5(17)1-12-3-13-10(7)15/h3-6,8-9,11,16-19H,1-2H2,(H,12,13)

>  <PUBCHEM_IUPAC_INCHIKEY>  (1) 
YOOVTUPUBVHMPG-UHFFFAOYSA-N

>  <PUBCHEM_XLOGP3>  (1) 
-3.1

>  <PUBCHEM_EXACT_MASS>  (1) 
284.11207

>  <PUBCHEM_MOLECULAR_FORMULA>  (1) 
C11H16N4O5

>  <PUBCHEM_MOLECULAR_WEIGHT>  (1) 
284.27

>  <PUBCHEM_OPENEYE_CAN_SMILES>  (1) 
C1C(C2=C(NC=N1)N(C=N2)C3C(C(C(O3)CO)O)O)O

>  <PUBCHEM_OPENEYE_ISO_SMILES>  (1) 
C1C(C2=C(NC=N1)N(C=N2)C3C(C(C(O3)CO)O)O)O

>  <PUBCHEM_CACTVS_TPSA>  (1) 
132

>  <PUBCHEM_MONOISOTOPIC_WEIGHT>  (1) 
284.11207

>  <PUBCHEM_TOTAL_CHARGE>  (1) 
0

>  <PUBCHEM_HEAVY_ATOM_COUNT>  (1) 
20

>  <PUBCHEM_ATOM_DEF_STEREO_COUNT>  (1) 
0

>  <PUBCHEM_ATOM_UDEF_STEREO_COUNT>  (1) 
5

>  <PUBCHEM_BOND_DEF_STEREO_COUNT>  (1) 
0

>  <PUBCHEM_BOND_UDEF_STEREO_COUNT>  (1) 
0

>  <PUBCHEM_ISOTOPIC_ATOM_COUNT>  (1) 
0

>  <PUBCHEM_COMPONENT_COUNT>  (1) 
1

>  <PUBCHEM_CACTVS_TAUTO_COUNT>  (1) 
-1

>  <PUBCHEM_COORDINATE_TYPE>  (1) 
1
5
255

>  <PUBCHEM_BONDANNOTATIONS>  (1) 
13  14  3
15  16  8
11  2  3
12  3  3
18  5  3
10  6  3
6  15  8
6  17  8
7  16  8
7  17  8

$$$$
