334
     RDKit          2D

 29 32  0  0  1  0  0  0  0  0999 V2000
    2.8634    3.6398    0.0000 O   0  0  0  0  0  0  0  0  0  0  0  0
    7.3498   -2.7337    0.0000 O   0  0  0  0  0  0  0  0  0  0  0  0
   -0.8164    1.0496    0.0000 C   0  0  0  0  0  0  0  0  0  0  0  0
    0.4102    1.9130    0.0000 C   0  0  0  0  0  0  0  0  0  0  0  0
    1.7712    1.2825    0.0000 C   0  0  0  0  0  0  0  0  0  0  0  0
    1.9057   -0.2115    0.0000 C   0  0  0  0  0  0  0  0  0  0  0  0
   -2.0166    1.9494    0.0000 C   0  0  0  0  0  0  0  0  0  0  0  0
   -0.6820   -0.4443    0.0000 C   0  0  0  0  0  0  0  0  0  0  0  0
   -0.0319    3.3464    0.0000 C   0  0  0  0  0  0  0  0  0  0  0  0
    3.2667   -0.8420    0.0000 C   0  0  0  0  0  0  0  0  0  0  0  0
    0.6791   -1.0749    0.0000 C   0  0  0  0  0  0  0  0  0  0  0  0
   -1.5317    3.3689    0.0000 C   0  0  0  0  0  0  0  0  0  0  0  0
    2.9978    2.1459    0.0000 C   0  0  0  0  0  0  0  0  0  0  0  0
   -3.4499    1.5073    0.0000 C   0  0  0  0  0  0  0  0  0  0  0  0
   -2.1265    0.3192    0.0000 C   0  0  0  0  0  0  0  0  0  0  0  0
    4.4933    0.0214    0.0000 C   0  0  0  0  0  0  0  0  0  0  0  0
    4.3589    1.5153    0.0000 C   0  0  0  0  0  0  0  0  0  0  0  0
    3.4011   -2.3360    0.0000 C   0  0  0  0  0  0  0  0  0  0  0  0
    2.0401   -1.7055    0.0000 C   0  0  0  0  0  0  0  0  0  0  0  0
   -3.7837    0.0449    0.0000 C   0  0  0  0  0  0  0  0  0  0  0  0
   -4.5495    2.5275    0.0000 C   0  0  0  0  0  0  0  0  0  0  0  0
    4.7622   -2.9666    0.0000 C   0  0  0  0  0  0  0  0  0  0  0  0
    5.8543   -0.6092    0.0000 C   0  0  0  0  0  0  0  0  0  0  0  0
    5.9888   -2.1032    0.0000 C   0  0  0  0  0  0  0  0  0  0  0  0
   -5.2171   -0.3972    0.0000 C   0  0  0  0  0  0  0  0  0  0  0  0
   -5.5509   -1.8596    0.0000 C   0  0  0  0  0  0  0  0  0  0  0  0
   -6.9843   -2.3017    0.0000 C   0  0  0  0  0  0  0  0  0  0  0  0
   -7.3181   -3.7641    0.0000 C   0  0  0  0  0  0  0  0  0  0  0  0
   -8.0838   -1.2815    0.0000 C   0  0  0  0  0  0  0  0  0  0  0  0
  1 13  1  0
  2 24  2  0
  3  4  1  0
  3  7  1  0
  3  8  1  0
  3 15  1  0
  4  5  1  0
  4  9  1  0
  5  6  1  0
  5 13  1  0
  6 10  1  0
  6 11  1  0
  7 12  1  0
  7 14  1  0
  8 11  1  0
  9 12  1  0
 10 16  1  0
 10 18  1  0
 10 19  1  0
 13 17  1  0
 14 20  1  0
 14 21  1  0
 16 17  1  0
 16 23  2  0
 18 22  1  0
 20 25  1  0
 22 24  1  0
 23 24  1  0
 25 26  1  0
 26 27  1  0
 27 28  1  0
 27 29  1  0
M  END
>  <PUBCHEM_COMPOUND_CID>  (1) 
334

>  <PUBCHEM_COMPOUND_CANONICALIZED>  (1) 
1

>  <PUBCHEM_CACTVS_COMPLEXITY>  (1) 
663

>  <PUBCHEM_CACTVS_HBOND_ACCEPTOR>  (1) 
2

>  <PUBCHEM_CACTVS_HBOND_DONOR>  (1) 
1

>  <PUBCHEM_CACTVS_ROTATABLE_BOND>  (1) 
5

>  <PUBCHEM_CACTVS_SUBSKEYS>  (1) 
AAADcfB4MAAAAAAAAAAAAAAAAAAAAYAAAAAwYIAAAAAAAGDAAAAAGgAACAAADxSggAICAAAAAgCIAqBSAAAAAAAgAAAACAEAAEgAEBIAAQAAQAAEwAAIAQOIyPCPgAAAAAAAAADAAAYAADAAAQAACAAAAA==

>  <PUBCHEM_IUPAC_OPENEYE_NAME>  (1) 
17-(1,5-dimethylhexyl)-7-hydroxy-10,13-dimethyl-1,2,6,7,8,9,11,12,14,15,16,17-dodecahydrocyclopenta[a]phenanthren-3-one

>  <PUBCHEM_IUPAC_CAS_NAME>  (1) 
7-hydroxy-10,13-dimethyl-17-(6-methylheptan-2-yl)-1,2,6,7,8,9,11,12,14,15,16,17-dodecahydrocyclopenta[a]phenanthren-3-one

>  <PUBCHEM_IUPAC_NAME_MARKUP>  (1) 
7-hydroxy-10,13-dimethyl-17-(6-methylheptan-2-yl)-1,2,6,7,8,9,11,12,14,15,16,17-dodecahydrocyclopenta[a]phenanthren-3-one

>  <PUBCHEM_IUPAC_NAME>  (1) 
7-hydroxy-10,13-dimethyl-17-(6-methylheptan-2-yl)-1,2,6,7,8,9,11,12,14,15,16,17-dodecahydrocyclopenta[a]phenanthren-3-one

>  <PUBCHEM_IUPAC_SYSTEMATIC_NAME>  (1) 
10,13-dimethyl-17-(6-methylheptan-2-yl)-7-oxidanyl-1,2,6,7,8,9,11,12,14,15,16,17-dodecahydrocyclopenta[a]phenanthren-3-one

>  <PUBCHEM_IUPAC_TRADITIONAL_NAME>  (1) 
17-(1,5-dimethylhexyl)-7-hydroxy-10,13-dimethyl-1,2,6,7,8,9,11,12,14,15,16,17-dodecahydrocyclopenta[a]phenanthren-3-one

>  <PUBCHEM_IUPAC_INCHI>  (1) 
InChI=1S/C27H44O2/c1-17(2)7-6-8-18(3)21-9-10-22-25-23(12-14-27(21,22)5)26(4)13-11-20(28)15-19(26)16-24(25)29/h15,17-18,21-25,29H,6-14,16H2,1-5H3

>  <PUBCHEM_IUPAC_INCHIKEY>  (1) 
IOIZWEJGGCZDOL-UHFFFAOYSA-N

>  <PUBCHEM_XLOGP3_AA>  (1) 
7.3

>  <PUBCHEM_EXACT_MASS>  (1) 
400.334131

>  <PUBCHEM_MOLECULAR_FORMULA>  (1) 
C27H44O2

>  <PUBCHEM_MOLECULAR_WEIGHT>  (1) 
400.6

>  <PUBCHEM_OPENEYE_CAN_SMILES>  (1) 
CC(C)CCCC(C)C1CCC2C1(CCC3C2C(CC4=CC(=O)CCC34C)O)C

>  <PUBCHEM_OPENEYE_ISO_SMILES>  (1) 
CC(C)CCCC(C)C1CCC2C1(CCC3C2C(CC4=CC(=O)CCC34C)O)C

>  <PUBCHEM_CACTVS_TPSA>  (1) 
37.3

>  <PUBCHEM_MONOISOTOPIC_WEIGHT>  (1) 
400.334131

>  <PUBCHEM_TOTAL_CHARGE>  (1) 
0

>  <PUBCHEM_HEAVY_ATOM_COUNT>  (1) 
29

>  <PUBCHEM_ATOM_DEF_STEREO_COUNT>  (1) 
0

>  <PUBCHEM_ATOM_UDEF_STEREO_COUNT>  (1) 
8

>  <PUBCHEM_BOND_DEF_STEREO_COUNT>  (1) 
0

>  <PUBCHEM_BOND_UDEF_STEREO_COUNT>  (1) 
0

>  <PUBCHEM_ISOTOPIC_ATOM_COUNT>  (1) 
0

>  <PUBCHEM_COMPONENT_COUNT>  (1) 
1

>  <PUBCHEM_CACTVS_TAUTO_COUNT>  (1) 
-1

>  <PUBCHEM_COORDINATE_TYPE>  (1) 
1
5
255

>  <PUBCHEM_BONDANNOTATIONS>  (1) 
13  1  3
10  19  3
14  21  3
3  15  3
4  9  3
5  13  3
6  11  3
7  12  3

$$$$
