335
     RDKit          2D

  8  8  0  0  0  0  0  0  0  0999 V2000
   -1.9486    1.5000    0.0000 O   0  0  0  0  0  0  0  0  0  0  0  0
   -0.6495   -0.7500    0.0000 C   0  0  0  0  0  0  0  0  0  0  0  0
   -0.6495    0.7500    0.0000 C   0  0  0  0  0  0  0  0  0  0  0  0
    0.6495   -1.5000    0.0000 C   0  0  0  0  0  0  0  0  0  0  0  0
   -1.9486   -1.5000    0.0000 C   0  0  0  0  0  0  0  0  0  0  0  0
    0.6495    1.5000    0.0000 C   0  0  0  0  0  0  0  0  0  0  0  0
    1.9486   -0.7500    0.0000 C   0  0  0  0  0  0  0  0  0  0  0  0
    1.9486    0.7500    0.0000 C   0  0  0  0  0  0  0  0  0  0  0  0
  1  3  1  0
  2  3  2  0
  2  4  1  0
  2  5  1  0
  3  6  1  0
  4  7  2  0
  6  8  2  0
  7  8  1  0
M  END
>  <PUBCHEM_COMPOUND_CID>  (1) 
335

>  <PUBCHEM_COMPOUND_CANONICALIZED>  (1) 
1

>  <PUBCHEM_CACTVS_COMPLEXITY>  (1) 
70.8

>  <PUBCHEM_CACTVS_HBOND_ACCEPTOR>  (1) 
1

>  <PUBCHEM_CACTVS_HBOND_DONOR>  (1) 
1

>  <PUBCHEM_CACTVS_ROTATABLE_BOND>  (1) 
0

>  <PUBCHEM_CACTVS_SUBSKEYS>  (1) 
AAADccBgIAAAAAAAAAAAAAAAAAAAAAAAAAAwAAAAAAAAAAABAAAAGgAACAAADASAmAAyBoAAAgCAAiBCAAACAAAgIAAIiAAGCIgIJiKCERKAcAAkwBEImAeAwCAOAAAAAAAIAAAAAAAAABAAAAAAAAAAAA==

>  <PUBCHEM_IUPAC_OPENEYE_NAME>  (1) 
o-cresol

>  <PUBCHEM_IUPAC_CAS_NAME>  (1) 
2-methylphenol

>  <PUBCHEM_IUPAC_NAME_MARKUP>  (1) 
2-methylphenol

>  <PUBCHEM_IUPAC_NAME>  (1) 
2-methylphenol

>  <PUBCHEM_IUPAC_SYSTEMATIC_NAME>  (1) 
2-methylphenol

>  <PUBCHEM_IUPAC_TRADITIONAL_NAME>  (1) 
o-cresol

>  <PUBCHEM_IUPAC_INCHI>  (1) 
InChI=1S/C7H8O/c1-6-4-2-3-5-7(6)8/h2-5,8H,1H3

>  <PUBCHEM_IUPAC_INCHIKEY>  (1) 
QWVGKYWNOKOFNN-UHFFFAOYSA-N

>  <PUBCHEM_XLOGP3>  (1) 
2

>  <PUBCHEM_EXACT_MASS>  (1) 
108.057515

>  <PUBCHEM_MOLECULAR_FORMULA>  (1) 
C7H8O

>  <PUBCHEM_MOLECULAR_WEIGHT>  (1) 
108.14

>  <PUBCHEM_OPENEYE_CAN_SMILES>  (1) 
CC1=CC=CC=C1O

>  <PUBCHEM_OPENEYE_ISO_SMILES>  (1) 
CC1=CC=CC=C1O

>  <PUBCHEM_CACTVS_TPSA>  (1) 
20.2

>  <PUBCHEM_MONOISOTOPIC_WEIGHT>  (1) 
108.057515

>  <PUBCHEM_TOTAL_CHARGE>  (1) 
0

>  <PUBCHEM_HEAVY_ATOM_COUNT>  (1) 
8

>  <PUBCHEM_ATOM_DEF_STEREO_COUNT>  (1) 
0

>  <PUBCHEM_ATOM_UDEF_STEREO_COUNT>  (1) 
0

>  <PUBCHEM_BOND_DEF_STEREO_COUNT>  (1) 
0

>  <PUBCHEM_BOND_UDEF_STEREO_COUNT>  (1) 
0

>  <PUBCHEM_ISOTOPIC_ATOM_COUNT>  (1) 
0

>  <PUBCHEM_COMPONENT_COUNT>  (1) 
1

>  <PUBCHEM_CACTVS_TAUTO_COUNT>  (1) 
-1

>  <PUBCHEM_COORDINATE_TYPE>  (1) 
1
5
255

>  <PUBCHEM_BONDANNOTATIONS>  (1) 
2  3  8
2  4  8
3  6  8
4  7  8
6  8  8
7  8  8

$$$$
