340
     RDKit          2D

  9  9  0  0  0  0  0  0  0  0999 V2000
   -0.0000   -2.3333    0.0000 O   0  0  0  0  0  0  0  0  0  0  0  0
   -2.5981   -0.8333    0.0000 O   0  0  0  0  0  0  0  0  0  0  0  0
    1.2990   -0.0833    0.0000 C   0  0  0  0  0  0  0  0  0  0  0  0
   -0.0000   -0.8333    0.0000 C   0  0  0  0  0  0  0  0  0  0  0  0
    1.2990    1.4167    0.0000 C   0  0  0  0  0  0  0  0  0  0  0  0
   -1.2990   -0.0833    0.0000 C   0  0  0  0  0  0  0  0  0  0  0  0
    2.5981   -0.8333    0.0000 C   0  0  0  0  0  0  0  0  0  0  0  0
    0.0000    2.1667    0.0000 C   0  0  0  0  0  0  0  0  0  0  0  0
   -1.2990    1.4167    0.0000 C   0  0  0  0  0  0  0  0  0  0  0  0
  1  4  1  0
  2  6  1  0
  3  4  2  0
  3  5  1  0
  3  7  1  0
  4  6  1  0
  5  8  2  0
  6  9  2  0
  8  9  1  0
M  END
>  <PUBCHEM_COMPOUND_CID>  (1) 
340

>  <PUBCHEM_COMPOUND_CANONICALIZED>  (1) 
1

>  <PUBCHEM_CACTVS_COMPLEXITY>  (1) 
92.9

>  <PUBCHEM_CACTVS_HBOND_ACCEPTOR>  (1) 
2

>  <PUBCHEM_CACTVS_HBOND_DONOR>  (1) 
2

>  <PUBCHEM_CACTVS_ROTATABLE_BOND>  (1) 
0

>  <PUBCHEM_CACTVS_SUBSKEYS>  (1) 
AAADccBgMAAAAAAAAAAAAAAAAAAAAAAAAAAwAAAAAAAAAAABAAAAGgAACAAADASAmAAyBoAAAgCAAiBCAAACAAAgIAAIiAAGiIgJJiKCERKAcAEkwBEJmAeAwDAOAAABAAAIQAAAAAIAABCAAAAAAAAAAA==

>  <PUBCHEM_IUPAC_OPENEYE_NAME>  (1) 
3-methylbenzene-1,2-diol

>  <PUBCHEM_IUPAC_CAS_NAME>  (1) 
3-methylbenzene-1,2-diol

>  <PUBCHEM_IUPAC_NAME_MARKUP>  (1) 
3-methylbenzene-1,2-diol

>  <PUBCHEM_IUPAC_NAME>  (1) 
3-methylbenzene-1,2-diol

>  <PUBCHEM_IUPAC_SYSTEMATIC_NAME>  (1) 
3-methylbenzene-1,2-diol

>  <PUBCHEM_IUPAC_TRADITIONAL_NAME>  (1) 
3-methylpyrocatechol

>  <PUBCHEM_IUPAC_INCHI>  (1) 
InChI=1S/C7H8O2/c1-5-3-2-4-6(8)7(5)9/h2-4,8-9H,1H3

>  <PUBCHEM_IUPAC_INCHIKEY>  (1) 
PGSWEKYNAOWQDF-UHFFFAOYSA-N

>  <PUBCHEM_XLOGP3>  (1) 
1.8

>  <PUBCHEM_EXACT_MASS>  (1) 
124.052429

>  <PUBCHEM_MOLECULAR_FORMULA>  (1) 
C7H8O2

>  <PUBCHEM_MOLECULAR_WEIGHT>  (1) 
124.14

>  <PUBCHEM_OPENEYE_CAN_SMILES>  (1) 
CC1=C(C(=CC=C1)O)O

>  <PUBCHEM_OPENEYE_ISO_SMILES>  (1) 
CC1=C(C(=CC=C1)O)O

>  <PUBCHEM_CACTVS_TPSA>  (1) 
40.5

>  <PUBCHEM_MONOISOTOPIC_WEIGHT>  (1) 
124.052429

>  <PUBCHEM_TOTAL_CHARGE>  (1) 
0

>  <PUBCHEM_HEAVY_ATOM_COUNT>  (1) 
9

>  <PUBCHEM_ATOM_DEF_STEREO_COUNT>  (1) 
0

>  <PUBCHEM_ATOM_UDEF_STEREO_COUNT>  (1) 
0

>  <PUBCHEM_BOND_DEF_STEREO_COUNT>  (1) 
0

>  <PUBCHEM_BOND_UDEF_STEREO_COUNT>  (1) 
0

>  <PUBCHEM_ISOTOPIC_ATOM_COUNT>  (1) 
0

>  <PUBCHEM_COMPONENT_COUNT>  (1) 
1

>  <PUBCHEM_CACTVS_TAUTO_COUNT>  (1) 
-1

>  <PUBCHEM_COORDINATE_TYPE>  (1) 
1
5
255

>  <PUBCHEM_BONDANNOTATIONS>  (1) 
3  4  8
3  5  8
4  6  8
5  8  8
6  9  8
8  9  8

$$$$
