347
     RDKit          2D

 20 21  0  0  1  0  0  0  0  0999 V2000
   -0.5999   -0.3899    0.0000 O   0  0  0  0  0  0  0  0  0  0  0  0
    0.3638    2.0229    0.0000 O   0  0  0  0  0  0  0  0  0  0  0  0
   -4.7789    1.2793    0.0000 O   0  0  0  0  0  0  0  0  0  0  0  0
   -4.3496   -1.6898    0.0000 O   0  0  0  0  0  0  0  0  0  0  0  0
   -2.4222    3.1356    0.0000 O   0  0  0  0  0  0  0  0  0  0  0  0
   -0.1706   -3.3590    0.0000 O   0  0  0  0  0  0  0  0  0  0  0  0
    2.4007   -2.9872    0.0000 O   0  0  0  0  0  0  0  0  0  0  0  0
   -3.3859    0.7229    0.0000 C   0  0  0  0  0  0  0  0  0  0  0  0
   -3.1712   -0.7617    0.0000 C   0  0  0  0  0  0  0  0  0  0  0  0
   -2.2076    1.6511    0.0000 C   0  0  0  0  0  0  0  0  0  0  0  0
   -1.7782   -1.3180    0.0000 C   0  0  0  0  0  0  0  0  0  0  0  0
   -0.8146    1.0947    0.0000 C   0  0  0  0  0  0  0  0  0  0  0  0
   -1.5636   -2.8026    0.0000 C   0  0  0  0  0  0  0  0  0  0  0  0
    1.7568    1.4665    0.0000 C   0  0  0  0  0  0  0  0  0  0  0  0
    1.9714   -0.0181    0.0000 C   0  0  0  0  0  0  0  0  0  0  0  0
    2.9351    2.3947    0.0000 C   0  0  0  0  0  0  0  0  0  0  0  0
    3.3644   -0.5745    0.0000 C   0  0  0  0  0  0  0  0  0  0  0  0
    4.3281    1.8383    0.0000 C   0  0  0  0  0  0  0  0  0  0  0  0
    4.5428    0.3537    0.0000 C   0  0  0  0  0  0  0  0  0  0  0  0
    3.5791   -2.0590    0.0000 C   0  0  0  0  0  0  0  0  0  0  0  0
  1 11  1  0
  1 12  1  0
  2 12  1  0
  2 14  1  0
  3  8  1  0
  4  9  1  0
  5 10  1  0
  6 13  1  0
  7 20  1  0
  8  9  1  0
  8 10  1  0
  9 11  1  0
 10 12  1  0
 11 13  1  0
 14 15  2  0
 14 16  1  0
 15 17  1  0
 16 18  2  0
 17 19  2  0
 17 20  1  0
 18 19  1  0
M  END
>  <PUBCHEM_COMPOUND_CID>  (1) 
347

>  <PUBCHEM_COMPOUND_CANONICALIZED>  (1) 
1

>  <PUBCHEM_CACTVS_COMPLEXITY>  (1) 
300

>  <PUBCHEM_CACTVS_HBOND_ACCEPTOR>  (1) 
7

>  <PUBCHEM_CACTVS_HBOND_DONOR>  (1) 
5

>  <PUBCHEM_CACTVS_ROTATABLE_BOND>  (1) 
4

>  <PUBCHEM_CACTVS_SUBSKEYS>  (1) 
AAADceBwOAAAAAAAAAAAAAAAAAAAAAAAAAA0QAAAAAAAAAABAAAAGgAACAAADBSwmAMwDoAABgCAAiBCAAACCAAgIAAIiAAGCIgdNiKEMRqieCClwBEPuAfA4DwOAAABAAAAAAAAAAIAAAAAAAAAAAAAAA==

>  <PUBCHEM_IUPAC_OPENEYE_NAME>  (1) 
2-(hydroxymethyl)-6-[3-(hydroxymethyl)phenoxy]tetrahydropyran-3,4,5-triol

>  <PUBCHEM_IUPAC_CAS_NAME>  (1) 
2-(hydroxymethyl)-6-[3-(hydroxymethyl)phenoxy]oxane-3,4,5-triol

>  <PUBCHEM_IUPAC_NAME_MARKUP>  (1) 
2-(hydroxymethyl)-6-[3-(hydroxymethyl)phenoxy]oxane-3,4,5-triol

>  <PUBCHEM_IUPAC_NAME>  (1) 
2-(hydroxymethyl)-6-[3-(hydroxymethyl)phenoxy]oxane-3,4,5-triol

>  <PUBCHEM_IUPAC_SYSTEMATIC_NAME>  (1) 
2-(hydroxymethyl)-6-[3-(hydroxymethyl)phenoxy]oxane-3,4,5-triol

>  <PUBCHEM_IUPAC_TRADITIONAL_NAME>  (1) 
2-methylol-6-(3-methylolphenoxy)tetrahydropyran-3,4,5-triol

>  <PUBCHEM_IUPAC_INCHI>  (1) 
InChI=1S/C13H18O7/c14-5-7-2-1-3-8(4-7)19-13-12(18)11(17)10(16)9(6-15)20-13/h1-4,9-18H,5-6H2

>  <PUBCHEM_IUPAC_INCHIKEY>  (1) 
XYUHQWZOBKBXMT-UHFFFAOYSA-N

>  <PUBCHEM_XLOGP3>  (1) 
-1.4

>  <PUBCHEM_EXACT_MASS>  (1) 
286.105253

>  <PUBCHEM_MOLECULAR_FORMULA>  (1) 
C13H18O7

>  <PUBCHEM_MOLECULAR_WEIGHT>  (1) 
286.28

>  <PUBCHEM_OPENEYE_CAN_SMILES>  (1) 
C1=CC(=CC(=C1)OC2C(C(C(C(O2)CO)O)O)O)CO

>  <PUBCHEM_OPENEYE_ISO_SMILES>  (1) 
C1=CC(=CC(=C1)OC2C(C(C(C(O2)CO)O)O)O)CO

>  <PUBCHEM_CACTVS_TPSA>  (1) 
120

>  <PUBCHEM_MONOISOTOPIC_WEIGHT>  (1) 
286.105253

>  <PUBCHEM_TOTAL_CHARGE>  (1) 
0

>  <PUBCHEM_HEAVY_ATOM_COUNT>  (1) 
20

>  <PUBCHEM_ATOM_DEF_STEREO_COUNT>  (1) 
0

>  <PUBCHEM_ATOM_UDEF_STEREO_COUNT>  (1) 
5

>  <PUBCHEM_BOND_DEF_STEREO_COUNT>  (1) 
0

>  <PUBCHEM_BOND_UDEF_STEREO_COUNT>  (1) 
0

>  <PUBCHEM_ISOTOPIC_ATOM_COUNT>  (1) 
0

>  <PUBCHEM_COMPONENT_COUNT>  (1) 
1

>  <PUBCHEM_CACTVS_TAUTO_COUNT>  (1) 
-1

>  <PUBCHEM_COORDINATE_TYPE>  (1) 
1
5
255

>  <PUBCHEM_BONDANNOTATIONS>  (1) 
11  13  3
14  15  8
14  16  8
15  17  8
16  18  8
17  19  8
18  19  8
12  2  3
8  3  3
9  4  3
10  5  3

$$$$
