351
     RDKit          2D

 28 27  0  0  1  0  0  0  0  0999 V2000
   -6.3191    0.3353    0.0000 S   0  0  0  0  0  0  0  0  0  0  0  0
   -7.6004   -0.4447    0.0000 S   0  0  0  0  0  0  0  0  0  0  0  0
  -11.5139    0.2145    0.0000 S   0  0  0  0  0  0  0  0  0  0  0  0
    9.2651    0.6978    0.0000 P   0  0  0  0  0  0  0  0  0  0  0  0
    7.9839   -0.0822    0.0000 O   0  0  0  0  0  0  0  0  0  0  0  0
    2.8240   -1.7026    0.0000 O   0  0  0  0  0  0  0  0  0  0  0  0
    4.1401   -2.4222    0.0000 O   0  0  0  0  0  0  0  0  0  0  0  0
    6.7375   -2.3618    0.0000 O   0  0  0  0  0  0  0  0  0  0  0  0
   10.0451   -0.5835    0.0000 O   0  0  0  0  0  0  0  0  0  0  0  0
   10.5464    1.4778    0.0000 O   0  0  0  0  0  0  0  0  0  0  0  0
    8.4851    1.9790    0.0000 O   0  0  0  0  0  0  0  0  0  0  0  0
  -12.8300    0.9341    0.0000 O   0  0  0  0  0  0  0  0  0  0  0  0
  -12.2335   -1.1017    0.0000 O   0  0  0  0  0  0  0  0  0  0  0  0
  -10.7943    1.5306    0.0000 O   0  0  0  0  0  0  0  0  0  0  0  0
    4.0704    0.5769    0.0000 N   0  0  0  0  0  0  0  0  0  0  0  0
   -1.1244    0.4561    0.0000 C   0  0  0  0  0  0  0  0  0  0  0  0
    0.1918   -0.2635    0.0000 C   0  0  0  0  0  0  0  0  0  0  0  0
   -2.4056   -0.3239    0.0000 C   0  0  0  0  0  0  0  0  0  0  0  0
    1.4730    0.5165    0.0000 C   0  0  0  0  0  0  0  0  0  0  0  0
    5.3865   -0.1426    0.0000 C   0  0  0  0  0  0  0  0  0  0  0  0
    6.6677    0.6374    0.0000 C   0  0  0  0  0  0  0  0  0  0  0  0
   -3.7217    0.3957    0.0000 C   0  0  0  0  0  0  0  0  0  0  0  0
    2.7891   -0.2031    0.0000 C   0  0  0  0  0  0  0  0  0  0  0  0
   -5.0030   -0.3843    0.0000 C   0  0  0  0  0  0  0  0  0  0  0  0
    6.6329    2.1370    0.0000 C   0  0  0  0  0  0  0  0  0  0  0  0
    5.4214   -1.6422    0.0000 C   0  0  0  0  0  0  0  0  0  0  0  0
   -8.9165    0.2749    0.0000 C   0  0  0  0  0  0  0  0  0  0  0  0
  -10.1977   -0.5051    0.0000 C   0  0  0  0  0  0  0  0  0  0  0  0
  1  2  1  0
  1 24  1  0
  2 27  1  0
  3 12  1  0
  3 13  2  0
  3 14  2  0
  3 28  1  0
  4  5  1  0
  4  9  1  0
  4 10  1  0
  4 11  2  0
  5 21  1  0
  6 23  2  0
  7 26  1  0
  8 26  2  0
 15 20  1  0
 15 23  1  0
 16 17  1  0
 16 18  1  0
 17 19  1  0
 18 22  1  0
 19 23  1  0
 20 21  1  0
 20 26  1  0
 21 25  1  0
 22 24  1  0
 27 28  1  0
M  END
>  <PUBCHEM_COMPOUND_CID>  (1) 
351

>  <PUBCHEM_COMPOUND_CANONICALIZED>  (1) 
1

>  <PUBCHEM_CACTVS_COMPLEXITY>  (1) 
633

>  <PUBCHEM_CACTVS_HBOND_ACCEPTOR>  (1) 
12

>  <PUBCHEM_CACTVS_HBOND_DONOR>  (1) 
5

>  <PUBCHEM_CACTVS_ROTATABLE_BOND>  (1) 
16

>  <PUBCHEM_CACTVS_SUBSKEYS>  (1) 
AAADceByPAJgAAAAAAAAAAAAAAAAAAAAAAAAAAAAAAAAAAAAAAAAHgQQCCAACDzlwAaCCALAA5IIQAGQGPBAAAAAAAAAAIGIAAACABYAgCAEQAAFNgCQAAEYiACAAAAAAAAAAAAAAAAAAAAAAAAAAAAAAA==

>  <PUBCHEM_IUPAC_OPENEYE_NAME>  (1) 
3-phosphonooxy-2-[7-(2-sulfoethyldisulfanyl)heptanoylamino]butanoic acid

>  <PUBCHEM_IUPAC_CAS_NAME>  (1) 
2-[[1-oxo-7-(2-sulfoethyldisulfanyl)heptyl]amino]-3-phosphonooxybutanoic acid

>  <PUBCHEM_IUPAC_NAME_MARKUP>  (1) 
3-phosphonooxy-2-[7-(2-sulfoethyldisulfanyl)heptanoylamino]butanoic acid

>  <PUBCHEM_IUPAC_NAME>  (1) 
3-phosphonooxy-2-[7-(2-sulfoethyldisulfanyl)heptanoylamino]butanoic acid

>  <PUBCHEM_IUPAC_SYSTEMATIC_NAME>  (1) 
3-phosphonooxy-2-[7-(2-sulfoethyldisulfanyl)heptanoylamino]butanoic acid

>  <PUBCHEM_IUPAC_TRADITIONAL_NAME>  (1) 
3-phosphonooxy-2-[7-(2-sulfoethyldisulfanyl)heptanoylamino]butyric acid

>  <PUBCHEM_IUPAC_INCHI>  (1) 
InChI=1S/C13H26NO10PS3/c1-10(24-25(18,19)20)12(13(16)17)14-11(15)6-4-2-3-5-7-26-27-8-9-28(21,22)23/h10,12H,2-9H2,1H3,(H,14,15)(H,16,17)(H2,18,19,20)(H,21,22,23)

>  <PUBCHEM_IUPAC_INCHIKEY>  (1) 
OBGQLHXSMIBYLN-UHFFFAOYSA-N

>  <PUBCHEM_XLOGP3_AA>  (1) 
-1.1

>  <PUBCHEM_EXACT_MASS>  (1) 
483.045647

>  <PUBCHEM_MOLECULAR_FORMULA>  (1) 
C13H26NO10PS3

>  <PUBCHEM_MOLECULAR_WEIGHT>  (1) 
483.5

>  <PUBCHEM_OPENEYE_CAN_SMILES>  (1) 
CC(C(C(=O)O)NC(=O)CCCCCCSSCCS(=O)(=O)O)OP(=O)(O)O

>  <PUBCHEM_OPENEYE_ISO_SMILES>  (1) 
CC(C(C(=O)O)NC(=O)CCCCCCSSCCS(=O)(=O)O)OP(=O)(O)O

>  <PUBCHEM_CACTVS_TPSA>  (1) 
247

>  <PUBCHEM_MONOISOTOPIC_WEIGHT>  (1) 
483.045647

>  <PUBCHEM_TOTAL_CHARGE>  (1) 
0

>  <PUBCHEM_HEAVY_ATOM_COUNT>  (1) 
28

>  <PUBCHEM_ATOM_DEF_STEREO_COUNT>  (1) 
0

>  <PUBCHEM_ATOM_UDEF_STEREO_COUNT>  (1) 
2

>  <PUBCHEM_BOND_DEF_STEREO_COUNT>  (1) 
0

>  <PUBCHEM_BOND_UDEF_STEREO_COUNT>  (1) 
0

>  <PUBCHEM_ISOTOPIC_ATOM_COUNT>  (1) 
0

>  <PUBCHEM_COMPONENT_COUNT>  (1) 
1

>  <PUBCHEM_CACTVS_TAUTO_COUNT>  (1) 
-1

>  <PUBCHEM_COORDINATE_TYPE>  (1) 
1
5
255

>  <PUBCHEM_BONDANNOTATIONS>  (1) 
20  26  3
21  25  3

$$$$
