352
     RDKit          2D

 44 45  0  0  1  0  0  0  0  0999 V2000
   -0.3641   -1.6690    0.0000 O   0  0  0  0  0  0  0  0  0  0  0  0
   -3.7242    0.4428    0.0000 O   0  0  0  0  0  0  0  0  0  0  0  0
    3.6886    1.5830    0.0000 O   0  0  0  0  0  0  0  0  0  0  0  0
   -2.3905   -3.2950    0.0000 O   0  0  0  0  0  0  0  0  0  0  0  0
   -5.7506   -1.1832    0.0000 O   0  0  0  0  0  0  0  0  0  0  0  0
    5.7149    3.2090    0.0000 O   0  0  0  0  0  0  0  0  0  0  0  0
    0.8208   -9.3727    0.0000 O   0  0  0  0  0  0  0  0  0  0  0  0
  -10.9882    3.2684    0.0000 O   0  0  0  0  0  0  0  0  0  0  0  0
   -1.6005   -8.4308    0.0000 O   0  0  0  0  0  0  0  0  0  0  0  0
  -10.5933    0.7005    0.0000 O   0  0  0  0  0  0  0  0  0  0  0  0
   10.9526   -1.2427    0.0000 O   0  0  0  0  0  0  0  0  0  0  0  0
   10.5576    1.3252    0.0000 O   0  0  0  0  0  0  0  0  0  0  0  0
    0.7235    1.1269    0.0000 N   0  0  0  0  0  0  0  0  0  0  0  0
   -1.1541    3.4667    0.0000 N   0  0  0  0  0  0  0  0  0  0  0  0
    1.5134   -4.0089    0.0000 N   0  0  0  0  0  0  0  0  0  0  0  0
   -5.6018    2.7826    0.0000 N   0  0  0  0  0  0  0  0  0  0  0  0
    0.8723    5.0927    0.0000 N   0  0  0  0  0  0  0  0  0  0  0  0
    3.2936    4.1508    0.0000 N   0  0  0  0  0  0  0  0  0  0  0  0
    5.5661   -0.7569    0.0000 N   0  0  0  0  0  0  0  0  0  0  0  0
    2.8986    6.7187    0.0000 N   0  0  0  0  0  0  0  0  0  0  0  0
   -1.3029   -0.4991    0.0000 C   0  0  0  0  0  0  0  0  0  0  0  0
   -2.7855   -0.7272    0.0000 C   0  0  0  0  0  0  0  0  0  0  0  0
   -0.7591    0.8988    0.0000 C   0  0  0  0  0  0  0  0  0  0  0  0
   -3.3293   -2.1251    0.0000 C   0  0  0  0  0  0  0  0  0  0  0  0
   -1.6979    2.0688    0.0000 C   0  0  0  0  0  0  0  0  0  0  0  0
    1.2672    2.5248    0.0000 C   0  0  0  0  0  0  0  0  0  0  0  0
    0.0309   -4.2369    0.0000 C   0  0  0  0  0  0  0  0  0  0  0  0
   -6.1456    1.3846    0.0000 C   0  0  0  0  0  0  0  0  0  0  0  0
   -0.9079   -3.0670    0.0000 C   0  0  0  0  0  0  0  0  0  0  0  0
    0.3285    3.6948    0.0000 C   0  0  0  0  0  0  0  0  0  0  0  0
   -0.5129   -5.6349    0.0000 C   0  0  0  0  0  0  0  0  0  0  0  0
   -5.2068    0.2147    0.0000 C   0  0  0  0  0  0  0  0  0  0  0  0
   -7.6281    1.1566    0.0000 C   0  0  0  0  0  0  0  0  0  0  0  0
    2.7498    2.7529    0.0000 C   0  0  0  0  0  0  0  0  0  0  0  0
    0.4258   -6.8048    0.0000 C   0  0  0  0  0  0  0  0  0  0  0  0
   -8.5669    2.3265    0.0000 C   0  0  0  0  0  0  0  0  0  0  0  0
    6.1099    0.6411    0.0000 C   0  0  0  0  0  0  0  0  0  0  0  0
    7.5925    0.8691    0.0000 C   0  0  0  0  0  0  0  0  0  0  0  0
    2.3548    5.3208    0.0000 C   0  0  0  0  0  0  0  0  0  0  0  0
    5.1711    1.8110    0.0000 C   0  0  0  0  0  0  0  0  0  0  0  0
    8.5313   -0.3008    0.0000 C   0  0  0  0  0  0  0  0  0  0  0  0
   -0.1180   -8.2027    0.0000 C   0  0  0  0  0  0  0  0  0  0  0  0
  -10.0495    2.0985    0.0000 C   0  0  0  0  0  0  0  0  0  0  0  0
   10.0138   -0.0727    0.0000 C   0  0  0  0  0  0  0  0  0  0  0  0
  1 21  1  0
  1 29  1  0
  2 22  1  0
  2 32  1  0
  3 34  1  0
  3 40  1  0
  4 29  2  0
  5 32  2  0
  6 40  2  0
  7 42  1  0
  8 43  1  0
  9 42  2  0
 10 43  2  0
 11 44  1  0
 12 44  2  0
 13 23  1  0
 13 26  1  0
 14 25  1  0
 14 30  1  0
 15 27  1  0
 16 28  1  0
 17 30  1  0
 17 39  2  0
 18 34  2  0
 18 39  1  0
 19 37  1  0
 20 39  1  0
 21 22  1  0
 21 23  1  0
 22 24  1  0
 23 25  2  0
 26 30  2  0
 26 34  1  0
 27 29  1  0
 27 31  1  0
 28 32  1  0
 28 33  1  0
 31 35  1  0
 33 36  1  0
 35 42  1  0
 36 43  1  0
 37 38  1  0
 37 40  1  0
 38 41  1  0
 41 44  1  0
M  END
>  <PUBCHEM_COMPOUND_CID>  (1) 
352

>  <PUBCHEM_COMPOUND_CANONICALIZED>  (1) 
1

>  <PUBCHEM_CACTVS_COMPLEXITY>  (1) 
1110

>  <PUBCHEM_CACTVS_HBOND_ACCEPTOR>  (1) 
20

>  <PUBCHEM_CACTVS_HBOND_DONOR>  (1) 
9

>  <PUBCHEM_CACTVS_ROTATABLE_BOND>  (1) 
20

>  <PUBCHEM_CACTVS_SUBSKEYS>  (1) 
AAADcfB7/AAAAAAAAAAAAAAAAAAAAAAAAAAsQAAAAAAAAACBgAAAHgAQCAAACDzhkgYD/JbIFgCoAAb2bACAiCkhMqABEKGtXBiHTBJE6UgfTiiO0ArSICCsJggAAAAAAAAAAAAAAAAAAAAAAAAAAAAAAA==

>  <PUBCHEM_IUPAC_OPENEYE_NAME>  (1) 
4-amino-5-[[2-amino-6-[1,2-bis[(2-amino-4-carboxy-butanoyl)oxy]propyl]-5,8-dihydropteridin-4-yl]oxy]-5-oxo-pentanoic acid

>  <PUBCHEM_IUPAC_CAS_NAME>  (1) 
4-amino-5-[[2-amino-6-[1,2-bis(2-amino-4-carboxy-1-oxobutoxy)propyl]-5,8-dihydropteridin-4-yl]oxy]-5-oxopentanoic acid

>  <PUBCHEM_IUPAC_NAME_MARKUP>  (1) 
4-amino-5-[[2-amino-6-[1,2-bis[(2-amino-4-carboxybutanoyl)oxy]propyl]-5,8-dihydropteridin-4-yl]oxy]-5-oxopentanoic acid

>  <PUBCHEM_IUPAC_NAME>  (1) 
4-amino-5-[[2-amino-6-[1,2-bis[(2-amino-4-carboxybutanoyl)oxy]propyl]-5,8-dihydropteridin-4-yl]oxy]-5-oxopentanoic acid

>  <PUBCHEM_IUPAC_SYSTEMATIC_NAME>  (1) 
4-azanyl-5-[[2-azanyl-6-[1,2-bis[(2-azanyl-5-oxidanyl-5-oxidanylidene-pentanoyl)oxy]propyl]-5,8-dihydropteridin-4-yl]oxy]-5-oxidanylidene-pentanoic acid

>  <PUBCHEM_IUPAC_TRADITIONAL_NAME>  (1) 
4-amino-5-[[2-amino-6-[1,2-bis[(2-amino-4-carboxy-butanoyl)oxy]propyl]-5,8-dihydropteridin-4-yl]oxy]-5-keto-valeric acid

>  <PUBCHEM_IUPAC_INCHI>  (1) 
InChI=1S/C24H34N8O12/c1-9(42-21(39)10(25)2-5-14(33)34)18(43-22(40)11(26)3-6-15(35)36)13-8-29-19-17(30-13)20(32-24(28)31-19)44-23(41)12(27)4-7-16(37)38/h8-12,18,30H,2-7,25-27H2,1H3,(H,33,34)(H,35,36)(H,37,38)(H3,28,29,31,32)

>  <PUBCHEM_IUPAC_INCHIKEY>  (1) 
XPPZDBCBKYATPW-UHFFFAOYSA-N

>  <PUBCHEM_XLOGP3_AA>  (1) 
-9.9

>  <PUBCHEM_EXACT_MASS>  (1) 
626.229619

>  <PUBCHEM_MOLECULAR_FORMULA>  (1) 
C24H34N8O12

>  <PUBCHEM_MOLECULAR_WEIGHT>  (1) 
626.6

>  <PUBCHEM_OPENEYE_CAN_SMILES>  (1) 
CC(C(C1=CNC2=C(N1)C(=NC(=N2)N)OC(=O)C(CCC(=O)O)N)OC(=O)C(CCC(=O)O)N)OC(=O)C(CCC(=O)O)N

>  <PUBCHEM_OPENEYE_ISO_SMILES>  (1) 
CC(C(C1=CNC2=C(N1)C(=NC(=N2)N)OC(=O)C(CCC(=O)O)N)OC(=O)C(CCC(=O)O)N)OC(=O)C(CCC(=O)O)N

>  <PUBCHEM_CACTVS_TPSA>  (1) 
345

>  <PUBCHEM_MONOISOTOPIC_WEIGHT>  (1) 
626.229619

>  <PUBCHEM_TOTAL_CHARGE>  (1) 
0

>  <PUBCHEM_HEAVY_ATOM_COUNT>  (1) 
44

>  <PUBCHEM_ATOM_DEF_STEREO_COUNT>  (1) 
0

>  <PUBCHEM_ATOM_UDEF_STEREO_COUNT>  (1) 
5

>  <PUBCHEM_BOND_DEF_STEREO_COUNT>  (1) 
0

>  <PUBCHEM_BOND_UDEF_STEREO_COUNT>  (1) 
0

>  <PUBCHEM_ISOTOPIC_ATOM_COUNT>  (1) 
0

>  <PUBCHEM_COMPONENT_COUNT>  (1) 
1

>  <PUBCHEM_CACTVS_TAUTO_COUNT>  (1) 
-1

>  <PUBCHEM_COORDINATE_TYPE>  (1) 
1
5
255

>  <PUBCHEM_BONDANNOTATIONS>  (1) 
21  1  3
27  15  3
28  16  3
17  30  8
17  39  8
18  34  8
18  39  8
37  19  3
22  24  3
26  30  8
26  34  8

$$$$
