353
     RDKit          2D

 45 46  0  0  1  0  0  0  0  0999 V2000
   -0.4009   -1.6681    0.0000 O   0  0  0  0  0  0  0  0  0  0  0  0
   -3.7612    0.4433    0.0000 O   0  0  0  0  0  0  0  0  0  0  0  0
    3.6515    1.5843    0.0000 O   0  0  0  0  0  0  0  0  0  0  0  0
   -2.4271   -3.2943    0.0000 O   0  0  0  0  0  0  0  0  0  0  0  0
   -5.7874   -1.1829    0.0000 O   0  0  0  0  0  0  0  0  0  0  0  0
    5.6777    3.2105    0.0000 O   0  0  0  0  0  0  0  0  0  0  0  0
    0.7848   -9.3716    0.0000 O   0  0  0  0  0  0  0  0  0  0  0  0
  -11.0255    3.2682    0.0000 O   0  0  0  0  0  0  0  0  0  0  0  0
   -1.6366   -8.4300    0.0000 O   0  0  0  0  0  0  0  0  0  0  0  0
  -10.6303    0.7004    0.0000 O   0  0  0  0  0  0  0  0  0  0  0  0
   10.9158   -1.2406    0.0000 O   0  0  0  0  0  0  0  0  0  0  0  0
   10.5205    1.3272    0.0000 O   0  0  0  0  0  0  0  0  0  0  0  0
    0.6864    1.1279    0.0000 N   0  0  0  0  0  0  0  0  0  0  0  0
   -1.1914    3.4676    0.0000 N   0  0  0  0  0  0  0  0  0  0  0  0
    0.8348    5.0938    0.0000 N   0  0  0  0  0  0  0  0  0  0  0  0
    3.2563    4.1521    0.0000 N   0  0  0  0  0  0  0  0  0  0  0  0
    1.4769   -4.0078    0.0000 N   0  0  0  0  0  0  0  0  0  0  0  0
   -5.6390    2.7830    0.0000 N   0  0  0  0  0  0  0  0  0  0  0  0
    2.8610    6.7200    0.0000 N   0  0  0  0  0  0  0  0  0  0  0  0
    5.5293   -0.7554    0.0000 N   0  0  0  0  0  0  0  0  0  0  0  0
   -1.3398   -0.4983    0.0000 C   0  0  0  0  0  0  0  0  0  0  0  0
   -2.8223   -0.7265    0.0000 C   0  0  0  0  0  0  0  0  0  0  0  0
   -0.7961    0.8997    0.0000 C   0  0  0  0  0  0  0  0  0  0  0  0
    1.2301    2.5259    0.0000 C   0  0  0  0  0  0  0  0  0  0  0  0
   -1.7350    2.0695    0.0000 C   0  0  0  0  0  0  0  0  0  0  0  0
   -3.3660   -2.1245    0.0000 C   0  0  0  0  0  0  0  0  0  0  0  0
    0.2912    3.6957    0.0000 C   0  0  0  0  0  0  0  0  0  0  0  0
    1.6253   -0.0419    0.0000 C   0  0  0  0  0  0  0  0  0  0  0  0
   -0.0057   -4.2360    0.0000 C   0  0  0  0  0  0  0  0  0  0  0  0
   -0.9446   -3.0661    0.0000 C   0  0  0  0  0  0  0  0  0  0  0  0
   -6.1827    1.3850    0.0000 C   0  0  0  0  0  0  0  0  0  0  0  0
    2.7126    2.7541    0.0000 C   0  0  0  0  0  0  0  0  0  0  0  0
   -5.2438    0.2152    0.0000 C   0  0  0  0  0  0  0  0  0  0  0  0
   -0.5493   -5.6340    0.0000 C   0  0  0  0  0  0  0  0  0  0  0  0
   -7.6652    1.1568    0.0000 C   0  0  0  0  0  0  0  0  0  0  0  0
    0.3896   -6.8038    0.0000 C   0  0  0  0  0  0  0  0  0  0  0  0
   -8.6041    2.3266    0.0000 C   0  0  0  0  0  0  0  0  0  0  0  0
    2.3174    5.3220    0.0000 C   0  0  0  0  0  0  0  0  0  0  0  0
    6.0729    0.6427    0.0000 C   0  0  0  0  0  0  0  0  0  0  0  0
    7.5555    0.8708    0.0000 C   0  0  0  0  0  0  0  0  0  0  0  0
    5.1340    1.8125    0.0000 C   0  0  0  0  0  0  0  0  0  0  0  0
    8.4943   -0.2990    0.0000 C   0  0  0  0  0  0  0  0  0  0  0  0
   -0.1541   -8.2018    0.0000 C   0  0  0  0  0  0  0  0  0  0  0  0
  -10.0866    2.0984    0.0000 C   0  0  0  0  0  0  0  0  0  0  0  0
    9.9769   -0.0708    0.0000 C   0  0  0  0  0  0  0  0  0  0  0  0
  1 21  1  0
  1 30  1  0
  2 22  1  0
  2 33  1  0
  3 32  1  0
  3 41  1  0
  4 30  2  0
  5 33  2  0
  6 41  2  0
  7 43  1  0
  8 44  1  0
  9 43  2  0
 10 44  2  0
 11 45  1  0
 12 45  2  0
 13 23  1  0
 13 24  1  0
 13 28  1  0
 14 25  1  0
 14 27  1  0
 15 27  1  0
 15 38  2  0
 16 32  2  0
 16 38  1  0
 17 29  1  0
 18 31  1  0
 19 38  1  0
 20 39  1  0
 21 22  1  0
 21 23  1  0
 22 26  1  0
 23 25  2  0
 24 27  2  0
 24 32  1  0
 29 30  1  0
 29 34  1  0
 31 33  1  0
 31 35  1  0
 34 36  1  0
 35 37  1  0
 36 43  1  0
 37 44  1  0
 39 40  1  0
 39 41  1  0
 40 42  1  0
 42 45  1  0
M  END
>  <PUBCHEM_COMPOUND_CID>  (1) 
353

>  <PUBCHEM_COMPOUND_CANONICALIZED>  (1) 
1

>  <PUBCHEM_CACTVS_COMPLEXITY>  (1) 
1140

>  <PUBCHEM_CACTVS_HBOND_ACCEPTOR>  (1) 
20

>  <PUBCHEM_CACTVS_HBOND_DONOR>  (1) 
8

>  <PUBCHEM_CACTVS_ROTATABLE_BOND>  (1) 
20

>  <PUBCHEM_CACTVS_SUBSKEYS>  (1) 
AAADcfB7/AAAAAAAAAAAAAAAAAAAAAAAAAAsQAAAAAAAAACBgAAAHgAQCAAACDzhkgYD/JfIFgCoAAb2bACAiCkhMqABEKGtXBiHTBJE6UgfTiiO0ArSICCsJggAAAAAAAAAAAAAAAAAAAAAAAAAAAAAAA==

>  <PUBCHEM_IUPAC_OPENEYE_NAME>  (1) 
4-amino-5-[[2-amino-6-[1,2-bis[(2-amino-4-carboxy-butanoyl)oxy]propyl]-5-methyl-8H-pteridin-4-yl]oxy]-5-oxo-pentanoic acid

>  <PUBCHEM_IUPAC_CAS_NAME>  (1) 
4-amino-5-[[2-amino-6-[1,2-bis(2-amino-4-carboxy-1-oxobutoxy)propyl]-5-methyl-8H-pteridin-4-yl]oxy]-5-oxopentanoic acid

>  <PUBCHEM_IUPAC_NAME_MARKUP>  (1) 
4-amino-5-[[2-amino-6-[1,2-bis[(2-amino-4-carboxybutanoyl)oxy]propyl]-5-methyl-8<I>H</I>-pteridin-4-yl]oxy]-5-oxopentanoic acid

>  <PUBCHEM_IUPAC_NAME>  (1) 
4-amino-5-[[2-amino-6-[1,2-bis[(2-amino-4-carboxybutanoyl)oxy]propyl]-5-methyl-8H-pteridin-4-yl]oxy]-5-oxopentanoic acid

>  <PUBCHEM_IUPAC_SYSTEMATIC_NAME>  (1) 
4-azanyl-5-[[2-azanyl-6-[1,2-bis[(2-azanyl-5-oxidanyl-5-oxidanylidene-pentanoyl)oxy]propyl]-5-methyl-8H-pteridin-4-yl]oxy]-5-oxidanylidene-pentanoic acid

>  <PUBCHEM_IUPAC_TRADITIONAL_NAME>  (1) 
4-amino-5-[[2-amino-6-[1,2-bis[(2-amino-4-carboxy-butanoyl)oxy]propyl]-5-methyl-8H-pteridin-4-yl]oxy]-5-keto-valeric acid

>  <PUBCHEM_IUPAC_INCHI>  (1) 
InChI=1S/C25H36N8O12/c1-10(43-22(40)11(26)3-6-15(34)35)19(44-23(41)12(27)4-7-16(36)37)14-9-30-20-18(33(14)2)21(32-25(29)31-20)45-24(42)13(28)5-8-17(38)39/h9-13,19H,3-8,26-28H2,1-2H3,(H,34,35)(H,36,37)(H,38,39)(H3,29,30,31,32)

>  <PUBCHEM_IUPAC_INCHIKEY>  (1) 
SRBIKUAVFZRKSG-UHFFFAOYSA-N

>  <PUBCHEM_XLOGP3_AA>  (1) 
-9.9

>  <PUBCHEM_EXACT_MASS>  (1) 
640.245269

>  <PUBCHEM_MOLECULAR_FORMULA>  (1) 
C25H36N8O12

>  <PUBCHEM_MOLECULAR_WEIGHT>  (1) 
640.6

>  <PUBCHEM_OPENEYE_CAN_SMILES>  (1) 
CC(C(C1=CNC2=C(N1C)C(=NC(=N2)N)OC(=O)C(CCC(=O)O)N)OC(=O)C(CCC(=O)O)N)OC(=O)C(CCC(=O)O)N

>  <PUBCHEM_OPENEYE_ISO_SMILES>  (1) 
CC(C(C1=CNC2=C(N1C)C(=NC(=N2)N)OC(=O)C(CCC(=O)O)N)OC(=O)C(CCC(=O)O)N)OC(=O)C(CCC(=O)O)N

>  <PUBCHEM_CACTVS_TPSA>  (1) 
336

>  <PUBCHEM_MONOISOTOPIC_WEIGHT>  (1) 
640.245269

>  <PUBCHEM_TOTAL_CHARGE>  (1) 
0

>  <PUBCHEM_HEAVY_ATOM_COUNT>  (1) 
45

>  <PUBCHEM_ATOM_DEF_STEREO_COUNT>  (1) 
0

>  <PUBCHEM_ATOM_UDEF_STEREO_COUNT>  (1) 
5

>  <PUBCHEM_BOND_DEF_STEREO_COUNT>  (1) 
0

>  <PUBCHEM_BOND_UDEF_STEREO_COUNT>  (1) 
0

>  <PUBCHEM_ISOTOPIC_ATOM_COUNT>  (1) 
0

>  <PUBCHEM_COMPONENT_COUNT>  (1) 
1

>  <PUBCHEM_CACTVS_TAUTO_COUNT>  (1) 
-1

>  <PUBCHEM_COORDINATE_TYPE>  (1) 
1
5
255

>  <PUBCHEM_BONDANNOTATIONS>  (1) 
21  1  3
15  27  8
15  38  8
16  32  8
16  38  8
29  17  3
31  18  3
39  20  3
22  26  3
24  27  8
24  32  8

$$$$
