360
     RDKit          2D

 28 28  0  0  1  0  0  0  0  0999 V2000
    2.7412   -2.5302    0.0000 P   0  0  0  0  0  0  0  0  0  0  0  0
    2.1419    0.4093    0.0000 O   0  0  0  0  0  0  0  0  0  0  0  0
    3.8642   -1.5359    0.0000 O   0  0  0  0  0  0  0  0  0  0  0  0
    5.5111    3.3924    0.0000 O   0  0  0  0  0  0  0  0  0  0  0  0
    2.6657    4.3432    0.0000 O   0  0  0  0  0  0  0  0  0  0  0  0
    6.1103    0.4529    0.0000 O   0  0  0  0  0  0  0  0  0  0  0  0
    1.6181   -3.5246    0.0000 O   0  0  0  0  0  0  0  0  0  0  0  0
   -0.7034    1.3601    0.0000 O   0  0  0  0  0  0  0  0  0  0  0  0
    1.7468   -1.4072    0.0000 O   0  0  0  0  0  0  0  0  0  0  0  0
    3.7355   -3.6533    0.0000 O   0  0  0  0  0  0  0  0  0  0  0  0
    4.3880    2.3980    0.0000 C   0  0  0  0  0  0  0  0  0  0  0  0
    2.9654    2.8734    0.0000 C   0  0  0  0  0  0  0  0  0  0  0  0
    4.6877    0.9283    0.0000 C   0  0  0  0  0  0  0  0  0  0  0  0
    1.8423    1.8791    0.0000 C   0  0  0  0  0  0  0  0  0  0  0  0
    3.5646   -0.0661    0.0000 C   0  0  0  0  0  0  0  0  0  0  0  0
    0.4196    2.3545    0.0000 C   0  0  0  0  0  0  0  0  0  0  0  0
   -2.3503   -3.5681    0.0000 C   0  0  0  0  0  0  0  0  0  0  0  0
   -2.6499   -2.0984    0.0000 C   0  0  0  0  0  0  0  0  0  0  0  0
   -0.9276   -4.0436    0.0000 C   0  0  0  0  0  0  0  0  0  0  0  0
   -4.0726   -1.6230    0.0000 C   0  0  0  0  0  0  0  0  0  0  0  0
    0.1955   -3.0492    0.0000 C   0  0  0  0  0  0  0  0  0  0  0  0
   -3.4733   -4.5625    0.0000 C   0  0  0  0  0  0  0  0  0  0  0  0
   -4.3722   -0.1532    0.0000 C   0  0  0  0  0  0  0  0  0  0  0  0
   -5.7948    0.3222    0.0000 C   0  0  0  0  0  0  0  0  0  0  0  0
   -6.0945    1.7920    0.0000 C   0  0  0  0  0  0  0  0  0  0  0  0
   -4.9714    2.7863    0.0000 C   0  0  0  0  0  0  0  0  0  0  0  0
   -7.5171    2.2674    0.0000 C   0  0  0  0  0  0  0  0  0  0  0  0
   -5.2710    4.2561    0.0000 C   0  0  0  0  0  0  0  0  0  0  0  0
  1  3  1  0
  1  7  1  0
  1  9  1  0
  1 10  2  0
  2 14  1  0
  2 15  1  0
  3 15  1  0
  4 11  1  0
  5 12  1  0
  6 13  1  0
  7 21  1  0
  8 16  1  0
 11 12  1  0
 11 13  1  0
 12 14  1  0
 13 15  1  0
 14 16  1  0
 17 18  1  0
 17 19  1  0
 17 22  1  0
 18 20  1  0
 19 21  1  0
 20 23  1  0
 23 24  1  0
 24 25  2  3
 25 26  1  0
 25 27  1  0
 26 28  1  0
M  END
>  <PUBCHEM_COMPOUND_CID>  (1) 
360

>  <PUBCHEM_COMPOUND_CANONICALIZED>  (1) 
1

>  <PUBCHEM_CACTVS_COMPLEXITY>  (1) 
527

>  <PUBCHEM_CACTVS_HBOND_ACCEPTOR>  (1) 
9

>  <PUBCHEM_CACTVS_HBOND_DONOR>  (1) 
5

>  <PUBCHEM_CACTVS_ROTATABLE_BOND>  (1) 
12

>  <PUBCHEM_CACTVS_SUBSKEYS>  (1) 
AAADcfB4PAIAAAAAAAAAAAAAAAAAAAAAAAAkAAAAAAAAAAAAAAAAGgAACCAADRSwgAMCCAAABxCAQiBCAIAAAAAgAAAACAAAAAgREAIAAQACQAAFgAAPAAPA4CQOAAAAAAAAAAAAAAAAAAAAAAAAAAAAAA==

>  <PUBCHEM_IUPAC_OPENEYE_NAME>  (1) 
3,8-dimethyldec-7-enyl [3,4,5-trihydroxy-6-(hydroxymethyl)tetrahydropyran-2-yl] hydrogen phosphate

>  <PUBCHEM_IUPAC_CAS_NAME>  (1) 
3,8-dimethyldec-7-enyl [3,4,5-trihydroxy-6-(hydroxymethyl)-2-oxanyl] hydrogen phosphate

>  <PUBCHEM_IUPAC_NAME_MARKUP>  (1) 
3,8-dimethyldec-7-enyl [3,4,5-trihydroxy-6-(hydroxymethyl)oxan-2-yl] hydrogen phosphate

>  <PUBCHEM_IUPAC_NAME>  (1) 
3,8-dimethyldec-7-enyl [3,4,5-trihydroxy-6-(hydroxymethyl)oxan-2-yl] hydrogen phosphate

>  <PUBCHEM_IUPAC_SYSTEMATIC_NAME>  (1) 
3,8-dimethyldec-7-enyl [6-(hydroxymethyl)-3,4,5-tris(oxidanyl)oxan-2-yl] hydrogen phosphate

>  <PUBCHEM_IUPAC_TRADITIONAL_NAME>  (1) 
3,8-dimethyldec-7-enyl (3,4,5-trihydroxy-6-methylol-tetrahydropyran-2-yl) hydrogen phosphate

>  <PUBCHEM_IUPAC_INCHI>  (1) 
InChI=1S/C18H35O9P/c1-4-12(2)7-5-6-8-13(3)9-10-25-28(23,24)27-18-17(22)16(21)15(20)14(11-19)26-18/h7,13-22H,4-6,8-11H2,1-3H3,(H,23,24)

>  <PUBCHEM_IUPAC_INCHIKEY>  (1) 
TYCMRLLIYCRSPF-UHFFFAOYSA-N

>  <PUBCHEM_XLOGP3_AA>  (1) 
1.5

>  <PUBCHEM_EXACT_MASS>  (1) 
426.20187

>  <PUBCHEM_MOLECULAR_FORMULA>  (1) 
C18H35O9P

>  <PUBCHEM_MOLECULAR_WEIGHT>  (1) 
426.4

>  <PUBCHEM_OPENEYE_CAN_SMILES>  (1) 
CCC(=CCCCC(C)CCOP(=O)(O)OC1C(C(C(C(O1)CO)O)O)O)C

>  <PUBCHEM_OPENEYE_ISO_SMILES>  (1) 
CCC(=CCCCC(C)CCOP(=O)(O)OC1C(C(C(C(O1)CO)O)O)O)C

>  <PUBCHEM_CACTVS_TPSA>  (1) 
146

>  <PUBCHEM_MONOISOTOPIC_WEIGHT>  (1) 
426.20187

>  <PUBCHEM_TOTAL_CHARGE>  (1) 
0

>  <PUBCHEM_HEAVY_ATOM_COUNT>  (1) 
28

>  <PUBCHEM_ATOM_DEF_STEREO_COUNT>  (1) 
0

>  <PUBCHEM_ATOM_UDEF_STEREO_COUNT>  (1) 
6

>  <PUBCHEM_BOND_DEF_STEREO_COUNT>  (1) 
0

>  <PUBCHEM_BOND_UDEF_STEREO_COUNT>  (1) 
1

>  <PUBCHEM_ISOTOPIC_ATOM_COUNT>  (1) 
0

>  <PUBCHEM_COMPONENT_COUNT>  (1) 
1

>  <PUBCHEM_CACTVS_TAUTO_COUNT>  (1) 
-1

>  <PUBCHEM_COORDINATE_TYPE>  (1) 
1
5
255

>  <PUBCHEM_BONDANNOTATIONS>  (1) 
14  16  3
17  22  3
24  25  1
15  3  3
11  4  3
12  5  3
13  6  3

$$$$
