366
     RDKit          2D

 16 17  0  0  0  0  0  0  0  0999 V2000
   -2.1183    1.6305    0.0000 O   0  0  0  0  0  0  0  0  0  0  0  0
    3.0509    1.1012    0.0000 O   0  0  0  0  0  0  0  0  0  0  0  0
   -4.7028    1.8951    0.0000 O   0  0  0  0  0  0  0  0  0  0  0  0
    4.1140   -1.2694    0.0000 O   0  0  0  0  0  0  0  0  0  0  0  0
   -1.0551   -0.7401    0.0000 C   0  0  0  0  0  0  0  0  0  0  0  0
   -2.4238   -1.3539    0.0000 C   0  0  0  0  0  0  0  0  0  0  0  0
   -0.9024    0.7521    0.0000 C   0  0  0  0  0  0  0  0  0  0  0  0
    0.1607   -1.6185    0.0000 C   0  0  0  0  0  0  0  0  0  0  0  0
    0.4663    1.3659    0.0000 C   0  0  0  0  0  0  0  0  0  0  0  0
    1.6822    0.4875    0.0000 C   0  0  0  0  0  0  0  0  0  0  0  0
    1.5294   -1.0047    0.0000 C   0  0  0  0  0  0  0  0  0  0  0  0
   -3.6397   -0.4755    0.0000 C   0  0  0  0  0  0  0  0  0  0  0  0
   -2.5766   -2.8461    0.0000 C   0  0  0  0  0  0  0  0  0  0  0  0
   -3.4869    1.0167    0.0000 C   0  0  0  0  0  0  0  0  0  0  0  0
    4.2668    0.2228    0.0000 C   0  0  0  0  0  0  0  0  0  0  0  0
    5.6354    0.8366    0.0000 C   0  0  0  0  0  0  0  0  0  0  0  0
  1  7  1  0
  1 14  1  0
  2 10  1  0
  2 15  1  0
  3 14  2  0
  4 15  2  0
  5  6  1  0
  5  7  2  0
  5  8  1  0
  6 12  2  0
  6 13  1  0
  7  9  1  0
  8 11  2  0
  9 10  2  0
 10 11  1  0
 12 14  1  0
 15 16  1  0
M  END
>  <PUBCHEM_COMPOUND_CID>  (1) 
366

>  <PUBCHEM_COMPOUND_CANONICALIZED>  (1) 
1

>  <PUBCHEM_CACTVS_COMPLEXITY>  (1) 
345

>  <PUBCHEM_CACTVS_HBOND_ACCEPTOR>  (1) 
4

>  <PUBCHEM_CACTVS_HBOND_DONOR>  (1) 
0

>  <PUBCHEM_CACTVS_ROTATABLE_BOND>  (1) 
2

>  <PUBCHEM_CACTVS_SUBSKEYS>  (1) 
AAADccBwOAAAAAAAAAAAAAAAAAAAAAAAAAAwQAAAAAAAAACBAAAAGgAAAAAADASAmAAyDoAABACIAiDSCAACCAAgIAAIiAAGCMgMJyKEMRqCOiClwBUIqQeA4KwOIAAACAAIAABAAAAQABAAAAAAAAAAAA==

>  <PUBCHEM_IUPAC_OPENEYE_NAME>  (1) 
(4-methyl-2-oxo-chromen-7-yl) acetate

>  <PUBCHEM_IUPAC_CAS_NAME>  (1) 
acetic acid (4-methyl-2-oxo-1-benzopyran-7-yl) ester

>  <PUBCHEM_IUPAC_NAME_MARKUP>  (1) 
(4-methyl-2-oxochromen-7-yl) acetate

>  <PUBCHEM_IUPAC_NAME>  (1) 
(4-methyl-2-oxochromen-7-yl) acetate

>  <PUBCHEM_IUPAC_SYSTEMATIC_NAME>  (1) 
(4-methyl-2-oxidanylidene-chromen-7-yl) ethanoate

>  <PUBCHEM_IUPAC_TRADITIONAL_NAME>  (1) 
acetic acid (2-keto-4-methyl-chromen-7-yl) ester

>  <PUBCHEM_IUPAC_INCHI>  (1) 
InChI=1S/C12H10O4/c1-7-5-12(14)16-11-6-9(15-8(2)13)3-4-10(7)11/h3-6H,1-2H3

>  <PUBCHEM_IUPAC_INCHIKEY>  (1) 
HXVZGASCDAGAPS-UHFFFAOYSA-N

>  <PUBCHEM_XLOGP3>  (1) 
2

>  <PUBCHEM_EXACT_MASS>  (1) 
218.057909

>  <PUBCHEM_MOLECULAR_FORMULA>  (1) 
C12H10O4

>  <PUBCHEM_MOLECULAR_WEIGHT>  (1) 
218.2

>  <PUBCHEM_OPENEYE_CAN_SMILES>  (1) 
CC1=CC(=O)OC2=C1C=CC(=C2)OC(=O)C

>  <PUBCHEM_OPENEYE_ISO_SMILES>  (1) 
CC1=CC(=O)OC2=C1C=CC(=C2)OC(=O)C

>  <PUBCHEM_CACTVS_TPSA>  (1) 
52.6

>  <PUBCHEM_MONOISOTOPIC_WEIGHT>  (1) 
218.057909

>  <PUBCHEM_TOTAL_CHARGE>  (1) 
0

>  <PUBCHEM_HEAVY_ATOM_COUNT>  (1) 
16

>  <PUBCHEM_ATOM_DEF_STEREO_COUNT>  (1) 
0

>  <PUBCHEM_ATOM_UDEF_STEREO_COUNT>  (1) 
0

>  <PUBCHEM_BOND_DEF_STEREO_COUNT>  (1) 
0

>  <PUBCHEM_BOND_UDEF_STEREO_COUNT>  (1) 
0

>  <PUBCHEM_ISOTOPIC_ATOM_COUNT>  (1) 
0

>  <PUBCHEM_COMPONENT_COUNT>  (1) 
1

>  <PUBCHEM_CACTVS_TAUTO_COUNT>  (1) 
-1

>  <PUBCHEM_COORDINATE_TYPE>  (1) 
1
5
255

>  <PUBCHEM_BONDANNOTATIONS>  (1) 
1  14  8
1  7  8
10  11  8
12  14  8
5  6  8
5  7  8
5  8  8
6  12  8
7  9  8
8  11  8
9  10  8

$$$$
