370
     RDKit          2D

 12 12  0  0  0  0  0  0  0  0999 V2000
   -3.3750    0.0000    0.0000 O   0  0  0  0  0  0  0  0  0  0  0  0
   -1.8750   -2.5981    0.0000 O   0  0  0  0  0  0  0  0  0  0  0  0
   -1.8750    2.5981    0.0000 O   0  0  0  0  0  0  0  0  0  0  0  0
    3.3750   -1.2990    0.0000 O   0  0  0  0  0  0  0  0  0  0  0  0
    3.3750    1.2990    0.0000 O   0  0  0  0  0  0  0  0  0  0  0  0
    1.1250   -0.0000    0.0000 C   0  0  0  0  0  0  0  0  0  0  0  0
   -1.8750    0.0000    0.0000 C   0  0  0  0  0  0  0  0  0  0  0  0
   -1.1250   -1.2990    0.0000 C   0  0  0  0  0  0  0  0  0  0  0  0
   -1.1250    1.2990    0.0000 C   0  0  0  0  0  0  0  0  0  0  0  0
    0.3750   -1.2990    0.0000 C   0  0  0  0  0  0  0  0  0  0  0  0
    0.3750    1.2990    0.0000 C   0  0  0  0  0  0  0  0  0  0  0  0
    2.6250    0.0000    0.0000 C   0  0  0  0  0  0  0  0  0  0  0  0
  1  7  1  0
  2  8  1  0
  3  9  1  0
  4 12  1  0
  5 12  2  0
  6 10  2  0
  6 11  1  0
  6 12  1  0
  7  8  2  0
  7  9  1  0
  8 10  1  0
  9 11  2  0
M  END
>  <PUBCHEM_COMPOUND_CID>  (1) 
370

>  <PUBCHEM_COMPOUND_CANONICALIZED>  (1) 
1

>  <PUBCHEM_CACTVS_COMPLEXITY>  (1) 
169

>  <PUBCHEM_CACTVS_HBOND_ACCEPTOR>  (1) 
5

>  <PUBCHEM_CACTVS_HBOND_DONOR>  (1) 
4

>  <PUBCHEM_CACTVS_ROTATABLE_BOND>  (1) 
1

>  <PUBCHEM_CACTVS_SUBSKEYS>  (1) 
AAADcYBgOAAAAAAAAAAAAAAAAAAAAAAAAAAwAAAAAAAAAAABAAAAGgAACAAADASAmAAwDoAAAgCIAiDSCAACAAAkIAAAiAEGiMgJJzKCFRKAcQElwBUJmYfK7DTOIAABCAAAQABAAAIQAACAAAAAAAAAAA==

>  <PUBCHEM_IUPAC_OPENEYE_NAME>  (1) 
3,4,5-trihydroxybenzoic acid

>  <PUBCHEM_IUPAC_CAS_NAME>  (1) 
3,4,5-trihydroxybenzoic acid

>  <PUBCHEM_IUPAC_NAME_MARKUP>  (1) 
3,4,5-trihydroxybenzoic acid

>  <PUBCHEM_IUPAC_NAME>  (1) 
3,4,5-trihydroxybenzoic acid

>  <PUBCHEM_IUPAC_SYSTEMATIC_NAME>  (1) 
3,4,5-tris(oxidanyl)benzoic acid

>  <PUBCHEM_IUPAC_TRADITIONAL_NAME>  (1) 
gallic acid

>  <PUBCHEM_IUPAC_INCHI>  (1) 
InChI=1S/C7H6O5/c8-4-1-3(7(11)12)2-5(9)6(4)10/h1-2,8-10H,(H,11,12)

>  <PUBCHEM_IUPAC_INCHIKEY>  (1) 
LNTHITQWFMADLM-UHFFFAOYSA-N

>  <PUBCHEM_XLOGP3>  (1) 
0.7

>  <PUBCHEM_EXACT_MASS>  (1) 
170.021523

>  <PUBCHEM_MOLECULAR_FORMULA>  (1) 
C7H6O5

>  <PUBCHEM_MOLECULAR_WEIGHT>  (1) 
170.12

>  <PUBCHEM_OPENEYE_CAN_SMILES>  (1) 
C1=C(C=C(C(=C1O)O)O)C(=O)O

>  <PUBCHEM_OPENEYE_ISO_SMILES>  (1) 
C1=C(C=C(C(=C1O)O)O)C(=O)O

>  <PUBCHEM_CACTVS_TPSA>  (1) 
98

>  <PUBCHEM_MONOISOTOPIC_WEIGHT>  (1) 
170.021523

>  <PUBCHEM_TOTAL_CHARGE>  (1) 
0

>  <PUBCHEM_HEAVY_ATOM_COUNT>  (1) 
12

>  <PUBCHEM_ATOM_DEF_STEREO_COUNT>  (1) 
0

>  <PUBCHEM_ATOM_UDEF_STEREO_COUNT>  (1) 
0

>  <PUBCHEM_BOND_DEF_STEREO_COUNT>  (1) 
0

>  <PUBCHEM_BOND_UDEF_STEREO_COUNT>  (1) 
0

>  <PUBCHEM_ISOTOPIC_ATOM_COUNT>  (1) 
0

>  <PUBCHEM_COMPONENT_COUNT>  (1) 
1

>  <PUBCHEM_CACTVS_TAUTO_COUNT>  (1) 
-1

>  <PUBCHEM_COORDINATE_TYPE>  (1) 
1
5
255

>  <PUBCHEM_BONDANNOTATIONS>  (1) 
6  10  8
6  11  8
7  8  8
7  9  8
8  10  8
9  11  8

$$$$
