372
     RDKit          2D

 13 13  0  0  0  0  0  0  0  0999 V2000
   -1.2990   -1.3269    0.0000 O   0  0  0  0  0  0  0  0  0  0  0  0
    3.8971    0.1731    0.0000 O   0  0  0  0  0  0  0  0  0  0  0  0
    0.0000   -3.5769    0.0000 O   0  0  0  0  0  0  0  0  0  0  0  0
   -2.5981    2.4231    0.0000 O   0  0  0  0  0  0  0  0  0  0  0  0
    2.5981    2.4231    0.0000 O   0  0  0  0  0  0  0  0  0  0  0  0
   -3.8971    0.1731    0.0000 O   0  0  0  0  0  0  0  0  0  0  0  0
    1.2990    0.1731    0.0000 C   0  0  0  0  0  0  0  0  0  0  0  0
   -0.0000    0.9231    0.0000 C   0  0  0  0  0  0  0  0  0  0  0  0
   -1.2990    0.1731    0.0000 C   0  0  0  0  0  0  0  0  0  0  0  0
    1.2990   -1.3269    0.0000 C   0  0  0  0  0  0  0  0  0  0  0  0
    0.0000   -2.0769    0.0000 C   0  0  0  0  0  0  0  0  0  0  0  0
    2.5981    0.9231    0.0000 C   0  0  0  0  0  0  0  0  0  0  0  0
   -2.5981    0.9231    0.0000 C   0  0  0  0  0  0  0  0  0  0  0  0
  1  9  1  0
  1 11  1  0
  2 12  1  0
  3 11  2  0
  4 13  1  0
  5 12  2  0
  6 13  2  0
  7  8  1  0
  7 10  2  0
  7 12  1  0
  8  9  2  0
  9 13  1  0
 10 11  1  0
M  END
>  <PUBCHEM_COMPOUND_CID>  (1) 
372

>  <PUBCHEM_COMPOUND_CANONICALIZED>  (1) 
1

>  <PUBCHEM_CACTVS_COMPLEXITY>  (1) 
348

>  <PUBCHEM_CACTVS_HBOND_ACCEPTOR>  (1) 
6

>  <PUBCHEM_CACTVS_HBOND_DONOR>  (1) 
2

>  <PUBCHEM_CACTVS_ROTATABLE_BOND>  (1) 
2

>  <PUBCHEM_CACTVS_SUBSKEYS>  (1) 
AAADcYBgOAAAAAAAAAAAAAAAAAAAAAAAAAAgAAAAAAAAAAAAAAAAGgAACAAADASAgAAACAAABgCIAiDSCAIACAAgIAAACAFAAEgJBAAAIQQCUAAAQAALsYIAAAAAAAAAAAAAAAAAAAAAAAAAAAAAAAAAAA==

>  <PUBCHEM_IUPAC_OPENEYE_NAME>  (1) 
6-oxopyran-2,4-dicarboxylic acid

>  <PUBCHEM_IUPAC_CAS_NAME>  (1) 
6-oxopyran-2,4-dicarboxylic acid

>  <PUBCHEM_IUPAC_NAME_MARKUP>  (1) 
6-oxopyran-2,4-dicarboxylic acid

>  <PUBCHEM_IUPAC_NAME>  (1) 
6-oxopyran-2,4-dicarboxylic acid

>  <PUBCHEM_IUPAC_SYSTEMATIC_NAME>  (1) 
6-oxidanylidenepyran-2,4-dicarboxylic acid

>  <PUBCHEM_IUPAC_TRADITIONAL_NAME>  (1) 
6-ketopyran-2,4-dicarboxylic acid

>  <PUBCHEM_IUPAC_INCHI>  (1) 
InChI=1S/C7H4O6/c8-5-2-3(6(9)10)1-4(13-5)7(11)12/h1-2H,(H,9,10)(H,11,12)

>  <PUBCHEM_IUPAC_INCHIKEY>  (1) 
VRMXCPVFSJVVCA-UHFFFAOYSA-N

>  <PUBCHEM_XLOGP3_AA>  (1) 
-0.2

>  <PUBCHEM_EXACT_MASS>  (1) 
184.000788

>  <PUBCHEM_MOLECULAR_FORMULA>  (1) 
C7H4O6

>  <PUBCHEM_MOLECULAR_WEIGHT>  (1) 
184.1

>  <PUBCHEM_OPENEYE_CAN_SMILES>  (1) 
C1=C(C=C(OC1=O)C(=O)O)C(=O)O

>  <PUBCHEM_OPENEYE_ISO_SMILES>  (1) 
C1=C(C=C(OC1=O)C(=O)O)C(=O)O

>  <PUBCHEM_CACTVS_TPSA>  (1) 
101

>  <PUBCHEM_MONOISOTOPIC_WEIGHT>  (1) 
184.000788

>  <PUBCHEM_TOTAL_CHARGE>  (1) 
0

>  <PUBCHEM_HEAVY_ATOM_COUNT>  (1) 
13

>  <PUBCHEM_ATOM_DEF_STEREO_COUNT>  (1) 
0

>  <PUBCHEM_ATOM_UDEF_STEREO_COUNT>  (1) 
0

>  <PUBCHEM_BOND_DEF_STEREO_COUNT>  (1) 
0

>  <PUBCHEM_BOND_UDEF_STEREO_COUNT>  (1) 
0

>  <PUBCHEM_ISOTOPIC_ATOM_COUNT>  (1) 
0

>  <PUBCHEM_COMPONENT_COUNT>  (1) 
1

>  <PUBCHEM_CACTVS_TAUTO_COUNT>  (1) 
-1

>  <PUBCHEM_COORDINATE_TYPE>  (1) 
1
5
255

>  <PUBCHEM_BONDANNOTATIONS>  (1) 
1  11  8
1  9  8
10  11  8
7  10  8
7  8  8
8  9  8

$$$$
