375
     RDKit          2D

 56 55  0  0  0  0  0  0  0  0999 V2000
   15.4407   -7.2146    0.0000 O   0  0  0  0  0  0  0  0  0  0  0  0
   -5.4898    6.0581    0.0000 C   0  0  0  0  0  0  0  0  0  0  0  0
   -1.3988    7.9325    0.0000 C   0  0  0  0  0  0  0  0  0  0  0  0
   -1.8210    3.4523    0.0000 C   0  0  0  0  0  0  0  0  0  0  0  0
    0.7656    3.2085    0.0000 C   0  0  0  0  0  0  0  0  0  0  0  0
   -2.7624    7.3077    0.0000 C   0  0  0  0  0  0  0  0  0  0  0  0
   -4.2669    5.1895    0.0000 C   0  0  0  0  0  0  0  0  0  0  0  0
    0.9063    4.7019    0.0000 C   0  0  0  0  0  0  0  0  0  0  0  0
   -0.5981    2.5837    0.0000 C   0  0  0  0  0  0  0  0  0  0  0  0
   -2.2433   -1.0278    0.0000 C   0  0  0  0  0  0  0  0  0  0  0  0
   -5.3491    7.5515    0.0000 C   0  0  0  0  0  0  0  0  0  0  0  0
   -0.1758    7.0639    0.0000 C   0  0  0  0  0  0  0  0  0  0  0  0
   -3.1847    2.8275    0.0000 C   0  0  0  0  0  0  0  0  0  0  0  0
    5.9388    2.7209    0.0000 C   0  0  0  0  0  0  0  0  0  0  0  0
    4.5751    2.0961    0.0000 C   0  0  0  0  0  0  0  0  0  0  0  0
    1.9885    2.3399    0.0000 C   0  0  0  0  0  0  0  0  0  0  0  0
   -3.6070   -1.6526    0.0000 C   0  0  0  0  0  0  0  0  0  0  0  0
   -2.1026    0.4656    0.0000 C   0  0  0  0  0  0  0  0  0  0  0  0
   -3.9854    8.1763    0.0000 C   0  0  0  0  0  0  0  0  0  0  0  0
   -4.4077    3.6961    0.0000 C   0  0  0  0  0  0  0  0  0  0  0  0
   -0.3166    5.5705    0.0000 C   0  0  0  0  0  0  0  0  0  0  0  0
    7.1617    1.8523    0.0000 C   0  0  0  0  0  0  0  0  0  0  0  0
   -0.7389    1.0904    0.0000 C   0  0  0  0  0  0  0  0  0  0  0  0
    3.3522    2.9647    0.0000 C   0  0  0  0  0  0  0  0  0  0  0  0
   -6.3344   -2.9022    0.0000 C   0  0  0  0  0  0  0  0  0  0  0  0
    8.2439   -0.5096    0.0000 C   0  0  0  0  0  0  0  0  0  0  0  0
   -5.1115   -3.7708    0.0000 C   0  0  0  0  0  0  0  0  0  0  0  0
    8.1031   -2.0030    0.0000 C   0  0  0  0  0  0  0  0  0  0  0  0
   -3.7478   -3.1460    0.0000 C   0  0  0  0  0  0  0  0  0  0  0  0
   -7.6981   -3.5270    0.0000 C   0  0  0  0  0  0  0  0  0  0  0  0
    7.0210    0.3590    0.0000 C   0  0  0  0  0  0  0  0  0  0  0  0
    9.3260   -2.8716    0.0000 C   0  0  0  0  0  0  0  0  0  0  0  0
   -6.5720    8.4201    0.0000 C   0  0  0  0  0  0  0  0  0  0  0  0
    1.1878    7.6887    0.0000 C   0  0  0  0  0  0  0  0  0  0  0  0
   -3.4193    1.7595    0.0000 C   0  0  0  0  0  0  0  0  0  0  0  0
    1.8477    0.8466    0.0000 C   0  0  0  0  0  0  0  0  0  0  0  0
   -3.0646    0.9854    0.0000 C   0  0  0  0  0  0  0  0  0  0  0  0
   -8.9210   -2.6584    0.0000 C   0  0  0  0  0  0  0  0  0  0  0  0
  -10.2847   -3.2832    0.0000 C   0  0  0  0  0  0  0  0  0  0  0  0
    8.5254    2.4771    0.0000 C   0  0  0  0  0  0  0  0  0  0  0  0
  -10.4254   -4.7765    0.0000 C   0  0  0  0  0  0  0  0  0  0  0  0
   11.9127   -3.1154    0.0000 C   0  0  0  0  0  0  0  0  0  0  0  0
   10.6897   -2.2468    0.0000 C   0  0  0  0  0  0  0  0  0  0  0  0
   -5.2522   -5.2641    0.0000 C   0  0  0  0  0  0  0  0  0  0  0  0
   13.2763   -2.4906    0.0000 C   0  0  0  0  0  0  0  0  0  0  0  0
  -11.7891   -5.4013    0.0000 C   0  0  0  0  0  0  0  0  0  0  0  0
    9.1853   -4.3650    0.0000 C   0  0  0  0  0  0  0  0  0  0  0  0
  -11.5076   -2.4146    0.0000 C   0  0  0  0  0  0  0  0  0  0  0  0
   14.4993   -3.3592    0.0000 C   0  0  0  0  0  0  0  0  0  0  0  0
  -11.9299   -6.8947    0.0000 C   0  0  0  0  0  0  0  0  0  0  0  0
   15.8630   -2.7344    0.0000 C   0  0  0  0  0  0  0  0  0  0  0  0
  -13.2936   -7.5195    0.0000 C   0  0  0  0  0  0  0  0  0  0  0  0
   14.3585   -4.8526    0.0000 C   0  0  0  0  0  0  0  0  0  0  0  0
   15.5814   -5.7212    0.0000 C   0  0  0  0  0  0  0  0  0  0  0  0
  -13.4343   -9.0129    0.0000 C   0  0  0  0  0  0  0  0  0  0  0  0
  -14.5165   -6.6509    0.0000 C   0  0  0  0  0  0  0  0  0  0  0  0
  1 54  1  0
  2  7  1  0
  2 11  1  0
  3  6  1  0
  3 12  1  0
  4  9  1  0
  4 13  1  0
  5  8  1  0
  5 16  1  0
  6 19  1  0
  7 20  1  0
  8 21  1  0
  9 23  1  0
 10 17  1  0
 10 18  1  0
 11 19  2  3
 11 33  1  0
 12 21  2  3
 12 34  1  0
 13 20  2  3
 13 35  1  0
 14 15  1  0
 14 22  1  0
 15 24  1  0
 16 24  2  3
 16 36  1  0
 17 29  1  0
 18 23  2  3
 18 37  1  0
 22 31  2  3
 22 40  1  0
 25 27  1  0
 25 30  1  0
 26 28  1  0
 26 31  1  0
 27 29  2  3
 27 44  1  0
 28 32  1  0
 30 38  1  0
 32 43  2  3
 32 47  1  0
 38 39  2  3
 39 41  1  0
 39 48  1  0
 41 46  1  0
 42 43  1  0
 42 45  1  0
 45 49  1  0
 46 50  1  0
 49 51  1  0
 49 53  2  3
 50 52  2  3
 52 55  1  0
 52 56  1  0
 53 54  1  0
M  END
>  <PUBCHEM_COMPOUND_CID>  (1) 
375

>  <PUBCHEM_COMPOUND_CANONICALIZED>  (1) 
1

>  <PUBCHEM_CACTVS_COMPLEXITY>  (1) 
1410

>  <PUBCHEM_CACTVS_HBOND_ACCEPTOR>  (1) 
1

>  <PUBCHEM_CACTVS_HBOND_DONOR>  (1) 
1

>  <PUBCHEM_CACTVS_ROTATABLE_BOND>  (1) 
31

>  <PUBCHEM_CACTVS_SUBSKEYS>  (1) 
AAADcfB8IAAAAAAAAAAAAAAAAAAAAAAAAAAAAAAAAAAAAAAAAAAAGgAACAAADACggAICAAAAAgCAAiBCAAAAAAAgAAAACAAAAAgAFAIAAQAAEAAAgAAIEAIAAAAAAAAAAAAAAAAAAAAAAAAAAAAAAAAAAA==

>  <PUBCHEM_IUPAC_OPENEYE_NAME>  (1) 
3,7,11,15,19,23,27,31,35,39,43-undecamethyltetratetraconta-2,6,10,14,18,22,26,30,34,38,42-undecaen-1-ol

>  <PUBCHEM_IUPAC_CAS_NAME>  (1) 
3,7,11,15,19,23,27,31,35,39,43-undecamethyl-1-tetratetraconta-2,6,10,14,18,22,26,30,34,38,42-undecaenol

>  <PUBCHEM_IUPAC_NAME_MARKUP>  (1) 
3,7,11,15,19,23,27,31,35,39,43-undecamethyltetratetraconta-2,6,10,14,18,22,26,30,34,38,42-undecaen-1-ol

>  <PUBCHEM_IUPAC_NAME>  (1) 
3,7,11,15,19,23,27,31,35,39,43-undecamethyltetratetraconta-2,6,10,14,18,22,26,30,34,38,42-undecaen-1-ol

>  <PUBCHEM_IUPAC_SYSTEMATIC_NAME>  (1) 
3,7,11,15,19,23,27,31,35,39,43-undecamethyltetratetraconta-2,6,10,14,18,22,26,30,34,38,42-undecaen-1-ol

>  <PUBCHEM_IUPAC_TRADITIONAL_NAME>  (1) 
3,7,11,15,19,23,27,31,35,39,43-undecamethyltetratetraconta-2,6,10,14,18,22,26,30,34,38,42-undecaen-1-ol

>  <PUBCHEM_IUPAC_INCHI>  (1) 
InChI=1S/C55H90O/c1-45(2)23-13-24-46(3)25-14-26-47(4)27-15-28-48(5)29-16-30-49(6)31-17-32-50(7)33-18-34-51(8)35-19-36-52(9)37-20-38-53(10)39-21-40-54(11)41-22-42-55(12)43-44-56/h23,25,27,29,31,33,35,37,39,41,43,56H,13-22,24,26,28,30,32,34,36,38,40,42,44H2,1-12H3

>  <PUBCHEM_IUPAC_INCHIKEY>  (1) 
TXKJNHBRVLCYFX-UHFFFAOYSA-N

>  <PUBCHEM_XLOGP3_AA>  (1) 
19.6

>  <PUBCHEM_EXACT_MASS>  (1) 
766.699168

>  <PUBCHEM_MOLECULAR_FORMULA>  (1) 
C55H90O

>  <PUBCHEM_MOLECULAR_WEIGHT>  (1) 
767.3

>  <PUBCHEM_OPENEYE_CAN_SMILES>  (1) 
CC(=CCCC(=CCCC(=CCCC(=CCCC(=CCCC(=CCCC(=CCCC(=CCCC(=CCCC(=CCCC(=CCO)C)C)C)C)C)C)C)C)C)C)C

>  <PUBCHEM_OPENEYE_ISO_SMILES>  (1) 
CC(=CCCC(=CCCC(=CCCC(=CCCC(=CCCC(=CCCC(=CCCC(=CCCC(=CCCC(=CCCC(=CCO)C)C)C)C)C)C)C)C)C)C)C

>  <PUBCHEM_CACTVS_TPSA>  (1) 
20.2

>  <PUBCHEM_MONOISOTOPIC_WEIGHT>  (1) 
766.699168

>  <PUBCHEM_TOTAL_CHARGE>  (1) 
0

>  <PUBCHEM_HEAVY_ATOM_COUNT>  (1) 
56

>  <PUBCHEM_ATOM_DEF_STEREO_COUNT>  (1) 
0

>  <PUBCHEM_ATOM_UDEF_STEREO_COUNT>  (1) 
0

>  <PUBCHEM_BOND_DEF_STEREO_COUNT>  (1) 
0

>  <PUBCHEM_BOND_UDEF_STEREO_COUNT>  (1) 
10

>  <PUBCHEM_ISOTOPIC_ATOM_COUNT>  (1) 
0

>  <PUBCHEM_COMPONENT_COUNT>  (1) 
1

>  <PUBCHEM_CACTVS_TAUTO_COUNT>  (1) 
-1

>  <PUBCHEM_COORDINATE_TYPE>  (1) 
1
5
255

>  <PUBCHEM_BONDANNOTATIONS>  (1) 
11  19  1
12  21  1
13  20  1
16  24  1
18  23  1
22  31  1
27  29  1
32  43  1
38  39  1
49  53  1

$$$$
