379
     RDKit          2D

 10  9  0  0  0  0  0  0  0  0999 V2000
    4.7658   -0.8152    0.0000 O   0  0  0  0  0  0  0  0  0  0  0  0
    3.6055    1.5094    0.0000 O   0  0  0  0  0  0  0  0  0  0  0  0
   -1.6720    0.3269    0.0000 C   0  0  0  0  0  0  0  0  0  0  0  0
   -0.4208   -0.5004    0.0000 C   0  0  0  0  0  0  0  0  0  0  0  0
   -3.0141   -0.3430    0.0000 C   0  0  0  0  0  0  0  0  0  0  0  0
    0.9213    0.1695    0.0000 C   0  0  0  0  0  0  0  0  0  0  0  0
   -4.2653    0.4843    0.0000 C   0  0  0  0  0  0  0  0  0  0  0  0
    2.1725   -0.6578    0.0000 C   0  0  0  0  0  0  0  0  0  0  0  0
   -5.6074   -0.1857    0.0000 C   0  0  0  0  0  0  0  0  0  0  0  0
    3.5146    0.0121    0.0000 C   0  0  0  0  0  0  0  0  0  0  0  0
  1 10  1  0
  2 10  2  0
  3  4  1  0
  3  5  1  0
  4  6  1  0
  5  7  1  0
  6  8  1  0
  7  9  1  0
  8 10  1  0
M  END
>  <PUBCHEM_COMPOUND_CID>  (1) 
379

>  <PUBCHEM_COMPOUND_CANONICALIZED>  (1) 
1

>  <PUBCHEM_CACTVS_COMPLEXITY>  (1) 
89.3

>  <PUBCHEM_CACTVS_HBOND_ACCEPTOR>  (1) 
2

>  <PUBCHEM_CACTVS_HBOND_DONOR>  (1) 
1

>  <PUBCHEM_CACTVS_ROTATABLE_BOND>  (1) 
6

>  <PUBCHEM_CACTVS_SUBSKEYS>  (1) 
AAADceBwMAAAAAAAAAAAAAAAAAAAAAAAAAAAAAAAAAAAAAAAAAAAGgAACAAACACAgAACCAAAAgAIAACQCAAAAAAAAAAAAAEAAAAAABIAAAAAQAAEAAAAAAGIyKCAAAAAAAAAAAAAAAAAAAAAAAAAAAAAAA==

>  <PUBCHEM_IUPAC_OPENEYE_NAME>  (1) 
octanoic acid

>  <PUBCHEM_IUPAC_CAS_NAME>  (1) 
octanoic acid

>  <PUBCHEM_IUPAC_NAME_MARKUP>  (1) 
octanoic acid

>  <PUBCHEM_IUPAC_NAME>  (1) 
octanoic acid

>  <PUBCHEM_IUPAC_SYSTEMATIC_NAME>  (1) 
octanoic acid

>  <PUBCHEM_IUPAC_TRADITIONAL_NAME>  (1) 
caprylic acid

>  <PUBCHEM_IUPAC_INCHI>  (1) 
InChI=1S/C8H16O2/c1-2-3-4-5-6-7-8(9)10/h2-7H2,1H3,(H,9,10)

>  <PUBCHEM_IUPAC_INCHIKEY>  (1) 
WWZKQHOCKIZLMA-UHFFFAOYSA-N

>  <PUBCHEM_XLOGP3>  (1) 
3

>  <PUBCHEM_EXACT_MASS>  (1) 
144.11503

>  <PUBCHEM_MOLECULAR_FORMULA>  (1) 
C8H16O2

>  <PUBCHEM_MOLECULAR_WEIGHT>  (1) 
144.21

>  <PUBCHEM_OPENEYE_CAN_SMILES>  (1) 
CCCCCCCC(=O)O

>  <PUBCHEM_OPENEYE_ISO_SMILES>  (1) 
CCCCCCCC(=O)O

>  <PUBCHEM_CACTVS_TPSA>  (1) 
37.3

>  <PUBCHEM_MONOISOTOPIC_WEIGHT>  (1) 
144.11503

>  <PUBCHEM_TOTAL_CHARGE>  (1) 
0

>  <PUBCHEM_HEAVY_ATOM_COUNT>  (1) 
10

>  <PUBCHEM_ATOM_DEF_STEREO_COUNT>  (1) 
0

>  <PUBCHEM_ATOM_UDEF_STEREO_COUNT>  (1) 
0

>  <PUBCHEM_BOND_DEF_STEREO_COUNT>  (1) 
0

>  <PUBCHEM_BOND_UDEF_STEREO_COUNT>  (1) 
0

>  <PUBCHEM_ISOTOPIC_ATOM_COUNT>  (1) 
0

>  <PUBCHEM_COMPONENT_COUNT>  (1) 
1

>  <PUBCHEM_CACTVS_TAUTO_COUNT>  (1) 
-1

>  <PUBCHEM_COORDINATE_TYPE>  (1) 
1
5
255

$$$$
