380
     RDKit          2D

 57 59  0  0  1  0  0  0  0  0999 V2000
  -13.2401   -0.0243    0.0000 S   0  0  0  0  0  0  0  0  0  0  0  0
    5.1908   -1.7548    0.0000 P   0  0  0  0  0  0  0  0  0  0  0  0
    4.8949    3.2730    0.0000 P   0  0  0  0  0  0  0  0  0  0  0  0
    2.2972    3.2305    0.0000 P   0  0  0  0  0  0  0  0  0  0  0  0
    8.9019    0.9484    0.0000 O   0  0  0  0  0  0  0  0  0  0  0  0
    6.6248   -2.1949    0.0000 O   0  0  0  0  0  0  0  0  0  0  0  0
    9.8275   -2.8210    0.0000 O   0  0  0  0  0  0  0  0  0  0  0  0
    6.2061    2.5444    0.0000 O   0  0  0  0  0  0  0  0  0  0  0  0
    5.6309   -0.3208    0.0000 O   0  0  0  0  0  0  0  0  0  0  0  0
    3.7568   -1.3146    0.0000 O   0  0  0  0  0  0  0  0  0  0  0  0
    3.5838    4.0017    0.0000 O   0  0  0  0  0  0  0  0  0  0  0  0
    4.7507   -3.1887    0.0000 O   0  0  0  0  0  0  0  0  0  0  0  0
    1.0106    2.4593    0.0000 O   0  0  0  0  0  0  0  0  0  0  0  0
    5.6236    4.5842    0.0000 O   0  0  0  0  0  0  0  0  0  0  0  0
    4.1663    1.9619    0.0000 O   0  0  0  0  0  0  0  0  0  0  0  0
   -1.5135   -2.0826    0.0000 O   0  0  0  0  0  0  0  0  0  0  0  0
    3.0684    1.9439    0.0000 O   0  0  0  0  0  0  0  0  0  0  0  0
    1.5260    4.5171    0.0000 O   0  0  0  0  0  0  0  0  0  0  0  0
   -2.8737    1.6456    0.0000 O   0  0  0  0  0  0  0  0  0  0  0  0
   -8.0692    1.5606    0.0000 O   0  0  0  0  0  0  0  0  0  0  0  0
  -14.5021   -2.2952    0.0000 O   0  0  0  0  0  0  0  0  0  0  0  0
   11.4127    0.0315    0.0000 N   0  0  0  0  0  0  0  0  0  0  0  0
   13.6135    1.0548    0.0000 N   0  0  0  0  0  0  0  0  0  0  0  0
   12.3022   -2.5608    0.0000 N   0  0  0  0  0  0  0  0  0  0  0  0
   14.8901   -2.7901    0.0000 N   0  0  0  0  0  0  0  0  0  0  0  0
   16.3826   -0.6635    0.0000 N   0  0  0  0  0  0  0  0  0  0  0  0
   -4.1357   -0.6253    0.0000 N   0  0  0  0  0  0  0  0  0  0  0  0
   -9.3312   -0.7104    0.0000 N   0  0  0  0  0  0  0  0  0  0  0  0
    7.7229   -1.1731    0.0000 C   0  0  0  0  0  0  0  0  0  0  0  0
    9.1951   -1.4609    0.0000 C   0  0  0  0  0  0  0  0  0  0  0  0
    7.5418    0.3160    0.0000 C   0  0  0  0  0  0  0  0  0  0  0  0
    9.9237   -0.1497    0.0000 C   0  0  0  0  0  0  0  0  0  0  0  0
    6.2306    1.0446    0.0000 C   0  0  0  0  0  0  0  0  0  0  0  0
   12.4345   -1.0667    0.0000 C   0  0  0  0  0  0  0  0  0  0  0  0
   12.1414    1.3426    0.0000 C   0  0  0  0  0  0  0  0  0  0  0  0
   13.7947   -0.4342    0.0000 C   0  0  0  0  0  0  0  0  0  0  0  0
   -0.2514    0.1884    0.0000 C   0  0  0  0  0  0  0  0  0  0  0  0
   15.0225   -1.2959    0.0000 C   0  0  0  0  0  0  0  0  0  0  0  0
   -1.5380   -0.5828    0.0000 C   0  0  0  0  0  0  0  0  0  0  0  0
    1.0352    0.9595    0.0000 C   0  0  0  0  0  0  0  0  0  0  0  0
   -1.0226    1.4750    0.0000 C   0  0  0  0  0  0  0  0  0  0  0  0
    0.5197   -1.0982    0.0000 C   0  0  0  0  0  0  0  0  0  0  0  0
   13.5300   -3.4225    0.0000 C   0  0  0  0  0  0  0  0  0  0  0  0
   -2.8492    0.1458    0.0000 C   0  0  0  0  0  0  0  0  0  0  0  0
   -5.4469    0.1033    0.0000 C   0  0  0  0  0  0  0  0  0  0  0  0
   -6.7335   -0.6679    0.0000 C   0  0  0  0  0  0  0  0  0  0  0  0
  -19.7221   -0.8805    0.0000 C   0  0  0  0  0  0  0  0  0  0  0  0
  -18.4355   -0.1093    0.0000 C   0  0  0  0  0  0  0  0  0  0  0  0
  -21.0333   -0.1519    0.0000 C   0  0  0  0  0  0  0  0  0  0  0  0
  -17.1244   -0.8380    0.0000 C   0  0  0  0  0  0  0  0  0  0  0  0
   -8.0446    0.0608    0.0000 C   0  0  0  0  0  0  0  0  0  0  0  0
  -22.3198   -0.9230    0.0000 C   0  0  0  0  0  0  0  0  0  0  0  0
  -15.8378   -0.0668    0.0000 C   0  0  0  0  0  0  0  0  0  0  0  0
  -10.6423    0.0183    0.0000 C   0  0  0  0  0  0  0  0  0  0  0  0
  -23.6310   -0.1944    0.0000 C   0  0  0  0  0  0  0  0  0  0  0  0
  -14.5267   -0.7954    0.0000 C   0  0  0  0  0  0  0  0  0  0  0  0
  -11.9289   -0.7529    0.0000 C   0  0  0  0  0  0  0  0  0  0  0  0
  1 56  1  0
  1 57  1  0
  2  6  1  0
  2  9  1  0
  2 10  1  0
  2 12  2  0
  3  8  1  0
  3 11  1  0
  3 14  1  0
  3 15  2  0
  4 11  1  0
  4 13  1  0
  4 17  1  0
  4 18  2  0
  5 31  1  0
  5 32  1  0
  6 29  1  0
  7 30  1  0
  8 33  1  0
 13 40  1  0
 16 39  1  0
 19 44  2  0
 20 51  2  0
 21 56  2  0
 22 32  1  0
 22 34  1  0
 22 35  1  0
 23 35  2  0
 23 36  1  0
 24 34  1  0
 24 43  2  0
 25 38  2  0
 25 43  1  0
 26 38  1  0
 27 44  1  0
 27 45  1  0
 28 51  1  0
 28 54  1  0
 29 30  1  0
 29 31  1  0
 30 32  1  0
 31 33  1  0
 34 36  2  0
 36 38  1  0
 37 39  1  0
 37 40  1  0
 37 41  1  0
 37 42  1  0
 39 44  1  0
 45 46  1  0
 46 51  1  0
 47 48  1  0
 47 49  1  0
 48 50  1  0
 49 52  1  0
 50 53  1  0
 52 55  1  0
 53 56  1  0
 54 57  1  0
M  END
>  <PUBCHEM_COMPOUND_CID>  (1) 
380

>  <PUBCHEM_COMPOUND_CANONICALIZED>  (1) 
1

>  <PUBCHEM_CACTVS_COMPLEXITY>  (1) 
1480

>  <PUBCHEM_CACTVS_HBOND_ACCEPTOR>  (1) 
22

>  <PUBCHEM_CACTVS_HBOND_DONOR>  (1) 
9

>  <PUBCHEM_CACTVS_ROTATABLE_BOND>  (1) 
26

>  <PUBCHEM_CACTVS_SUBSKEYS>  (1) 
AAADcfB7vgNAAAAAAAAAAAAAAAAAAWJAAAAsAAAAAAAAAFgB+AAAHgQQCCAADhzl1waH8L/MFxioQQdxdIKAgC0RELABUKFoVBCDWBpgyEAeRAgPFgLzACH6uIKJAAAAAAAAAAAAAAAAAAAAAAAAAAAAAA==

>  <PUBCHEM_IUPAC_OPENEYE_NAME>  (1) 
S-[2-[3-[[4-[[[5-(6-aminopurin-9-yl)-4-hydroxy-3-phosphonooxy-tetrahydrofuran-2-yl]methoxy-hydroxy-phosphoryl]oxy-hydroxy-phosphoryl]oxy-2-hydroxy-3,3-dimethyl-butanoyl]amino]propanoylamino]ethyl] octanethioate

>  <PUBCHEM_IUPAC_CAS_NAME>  (1) 
octanethioic acid S-[2-[[3-[[4-[[[5-(6-aminopurin-9-yl)-4-hydroxy-3-phosphonooxy-2-oxolanyl]methoxy-hydroxyphosphoryl]oxy-hydroxyphosphoryl]oxy-2-hydroxy-3,3-dimethyl-1-oxobutyl]amino]-1-oxopropyl]amino]ethyl] ester

>  <PUBCHEM_IUPAC_NAME_MARKUP>  (1) 
<I>S</I>-[2-[3-[[4-[[[5-(6-aminopurin-9-yl)-4-hydroxy-3-phosphonooxyoxolan-2-yl]methoxy-hydroxyphosphoryl]oxy-hydroxyphosphoryl]oxy-2-hydroxy-3,3-dimethylbutanoyl]amino]propanoylamino]ethyl] octanethioate

>  <PUBCHEM_IUPAC_NAME>  (1) 
S-[2-[3-[[4-[[[5-(6-aminopurin-9-yl)-4-hydroxy-3-phosphonooxyoxolan-2-yl]methoxy-hydroxyphosphoryl]oxy-hydroxyphosphoryl]oxy-2-hydroxy-3,3-dimethylbutanoyl]amino]propanoylamino]ethyl] octanethioate

>  <PUBCHEM_IUPAC_SYSTEMATIC_NAME>  (1) 
S-[2-[3-[[4-[[[5-(6-aminopurin-9-yl)-4-oxidanyl-3-phosphonooxy-oxolan-2-yl]methoxy-oxidanyl-phosphoryl]oxy-oxidanyl-phosphoryl]oxy-3,3-dimethyl-2-oxidanyl-butanoyl]amino]propanoylamino]ethyl] octanethioate

>  <PUBCHEM_IUPAC_TRADITIONAL_NAME>  (1) 
octanethioic acid S-[2-[3-[[4-[[(5-adenin-9-yl-4-hydroxy-3-phosphonooxy-tetrahydrofuran-2-yl)methoxy-hydroxy-phosphoryl]oxy-hydroxy-phosphoryl]oxy-2-hydroxy-3,3-dimethyl-butanoyl]amino]propanoylamino]ethyl] ester

>  <PUBCHEM_IUPAC_INCHI>  (1) 
InChI=1S/C29H50N7O17P3S/c1-4-5-6-7-8-9-20(38)57-13-12-31-19(37)10-11-32-27(41)24(40)29(2,3)15-50-56(47,48)53-55(45,46)49-14-18-23(52-54(42,43)44)22(39)28(51-18)36-17-35-21-25(30)33-16-34-26(21)36/h16-18,22-24,28,39-40H,4-15H2,1-3H3,(H,31,37)(H,32,41)(H,45,46)(H,47,48)(H2,30,33,34)(H2,42,43,44)

>  <PUBCHEM_IUPAC_INCHIKEY>  (1) 
KQMZYOXOBSXMII-UHFFFAOYSA-N

>  <PUBCHEM_XLOGP3_AA>  (1) 
-2.6

>  <PUBCHEM_EXACT_MASS>  (1) 
893.219675

>  <PUBCHEM_MOLECULAR_FORMULA>  (1) 
C29H50N7O17P3S

>  <PUBCHEM_MOLECULAR_WEIGHT>  (1) 
893.7

>  <PUBCHEM_OPENEYE_CAN_SMILES>  (1) 
CCCCCCCC(=O)SCCNC(=O)CCNC(=O)C(C(C)(C)COP(=O)(O)OP(=O)(O)OCC1C(C(C(O1)N2C=NC3=C(N=CN=C32)N)O)OP(=O)(O)O)O

>  <PUBCHEM_OPENEYE_ISO_SMILES>  (1) 
CCCCCCCC(=O)SCCNC(=O)CCNC(=O)C(C(C)(C)COP(=O)(O)OP(=O)(O)OCC1C(C(C(O1)N2C=NC3=C(N=CN=C32)N)O)OP(=O)(O)O)O

>  <PUBCHEM_CACTVS_TPSA>  (1) 
389

>  <PUBCHEM_MONOISOTOPIC_WEIGHT>  (1) 
893.219675

>  <PUBCHEM_TOTAL_CHARGE>  (1) 
0

>  <PUBCHEM_HEAVY_ATOM_COUNT>  (1) 
57

>  <PUBCHEM_ATOM_DEF_STEREO_COUNT>  (1) 
0

>  <PUBCHEM_ATOM_UDEF_STEREO_COUNT>  (1) 
5

>  <PUBCHEM_BOND_DEF_STEREO_COUNT>  (1) 
0

>  <PUBCHEM_BOND_UDEF_STEREO_COUNT>  (1) 
0

>  <PUBCHEM_ISOTOPIC_ATOM_COUNT>  (1) 
0

>  <PUBCHEM_COMPONENT_COUNT>  (1) 
1

>  <PUBCHEM_CACTVS_TAUTO_COUNT>  (1) 
-1

>  <PUBCHEM_COORDINATE_TYPE>  (1) 
1
5
255

>  <PUBCHEM_BONDANNOTATIONS>  (1) 
39  16  3
32  22  3
22  34  8
22  35  8
23  35  8
23  36  8
24  34  8
24  43  8
25  38  8
25  43  8
31  33  3
34  36  8
36  38  8
29  6  3
30  7  3

$$$$
