382
     RDKit          2D

 57 60  0  0  1  0  0  0  0  0999 V2000
  -13.4991   -0.5954    0.0000 S   0  0  0  0  0  0  0  0  0  0  0  0
    4.9757   -1.7673    0.0000 P   0  0  0  0  0  0  0  0  0  0  0  0
    4.5278    3.2492    0.0000 P   0  0  0  0  0  0  0  0  0  0  0  0
    1.9326    3.1281    0.0000 P   0  0  0  0  0  0  0  0  0  0  0  0
    8.6033    1.0469    0.0000 O   0  0  0  0  0  0  0  0  0  0  0  0
    6.4224   -2.1639    0.0000 O   0  0  0  0  0  0  0  0  0  0  0  0
    9.6426   -2.6928    0.0000 O   0  0  0  0  0  0  0  0  0  0  0  0
    5.8604    2.5606    0.0000 O   0  0  0  0  0  0  0  0  0  0  0  0
    5.3722   -0.3207    0.0000 O   0  0  0  0  0  0  0  0  0  0  0  0
    3.5291   -1.3708    0.0000 O   0  0  0  0  0  0  0  0  0  0  0  0
    3.1952    3.9378    0.0000 O   0  0  0  0  0  0  0  0  0  0  0  0
    0.6699    2.3183    0.0000 O   0  0  0  0  0  0  0  0  0  0  0  0
    4.5792   -3.2140    0.0000 O   0  0  0  0  0  0  0  0  0  0  0  0
    5.2164    4.5818    0.0000 O   0  0  0  0  0  0  0  0  0  0  0  0
   -1.7156   -2.2979    0.0000 O   0  0  0  0  0  0  0  0  0  0  0  0
    3.8392    1.9166    0.0000 O   0  0  0  0  0  0  0  0  0  0  0  0
    2.7423    1.8654    0.0000 O   0  0  0  0  0  0  0  0  0  0  0  0
    1.1228    4.3907    0.0000 O   0  0  0  0  0  0  0  0  0  0  0  0
   -3.1880    1.3875    0.0000 O   0  0  0  0  0  0  0  0  0  0  0  0
   -8.3785    1.1452    0.0000 O   0  0  0  0  0  0  0  0  0  0  0  0
  -14.6918   -2.9035    0.0000 O   0  0  0  0  0  0  0  0  0  0  0  0
  -20.0921    1.3494    0.0000 O   0  0  0  0  0  0  0  0  0  0  0  0
   11.1407    0.2063    0.0000 N   0  0  0  0  0  0  0  0  0  0  0  0
   13.3095    1.2958    0.0000 N   0  0  0  0  0  0  0  0  0  0  0  0
   12.1082   -2.3578    0.0000 N   0  0  0  0  0  0  0  0  0  0  0  0
   14.7019   -2.5087    0.0000 N   0  0  0  0  0  0  0  0  0  0  0  0
   16.1294   -0.3379    0.0000 N   0  0  0  0  0  0  0  0  0  0  0  0
   -4.3808   -0.9207    0.0000 N   0  0  0  0  0  0  0  0  0  0  0  0
   -9.5713   -1.1629    0.0000 N   0  0  0  0  0  0  0  0  0  0  0  0
    7.4891   -1.1093    0.0000 C   0  0  0  0  0  0  0  0  0  0  0  0
    8.9692   -1.3524    0.0000 C   0  0  0  0  0  0  0  0  0  0  0  0
    7.2629    0.3736    0.0000 C   0  0  0  0  0  0  0  0  0  0  0  0
    9.6579   -0.0198    0.0000 C   0  0  0  0  0  0  0  0  0  0  0  0
    5.9303    1.0622    0.0000 C   0  0  0  0  0  0  0  0  0  0  0  0
   12.1953   -0.8604    0.0000 C   0  0  0  0  0  0  0  0  0  0  0  0
   11.8293    1.5389    0.0000 C   0  0  0  0  0  0  0  0  0  0  0  0
   13.5357   -0.1871    0.0000 C   0  0  0  0  0  0  0  0  0  0  0  0
   -0.5228    0.0102    0.0000 C   0  0  0  0  0  0  0  0  0  0  0  0
   -1.7855   -0.7995    0.0000 C   0  0  0  0  0  0  0  0  0  0  0  0
    0.7398    0.8199    0.0000 C   0  0  0  0  0  0  0  0  0  0  0  0
   14.7890   -1.0112    0.0000 C   0  0  0  0  0  0  0  0  0  0  0  0
   -1.3326    1.2729    0.0000 C   0  0  0  0  0  0  0  0  0  0  0  0
    0.2869   -1.2525    0.0000 C   0  0  0  0  0  0  0  0  0  0  0  0
   13.3615   -3.1820    0.0000 C   0  0  0  0  0  0  0  0  0  0  0  0
   -3.1181   -0.1109    0.0000 C   0  0  0  0  0  0  0  0  0  0  0  0
   -5.7133   -0.2320    0.0000 C   0  0  0  0  0  0  0  0  0  0  0  0
   -6.9760   -1.0418    0.0000 C   0  0  0  0  0  0  0  0  0  0  0  0
   -8.3086   -0.3532    0.0000 C   0  0  0  0  0  0  0  0  0  0  0  0
  -10.9038   -0.4743    0.0000 C   0  0  0  0  0  0  0  0  0  0  0  0
  -12.1665   -1.2840    0.0000 C   0  0  0  0  0  0  0  0  0  0  0  0
  -14.7618   -1.4051    0.0000 C   0  0  0  0  0  0  0  0  0  0  0  0
  -16.0943   -0.7165    0.0000 C   0  0  0  0  0  0  0  0  0  0  0  0
  -16.1643    0.7819    0.0000 C   0  0  0  0  0  0  0  0  0  0  0  0
  -17.3570   -1.5263    0.0000 C   0  0  0  0  0  0  0  0  0  0  0  0
  -17.4969    1.4705    0.0000 C   0  0  0  0  0  0  0  0  0  0  0  0
  -18.6896   -0.8376    0.0000 C   0  0  0  0  0  0  0  0  0  0  0  0
  -18.7595    0.6607    0.0000 C   0  0  0  0  0  0  0  0  0  0  0  0
  1 50  1  0
  1 51  1  0
  2  6  1  0
  2  9  1  0
  2 10  1  0
  2 13  2  0
  3  8  1  0
  3 11  1  0
  3 14  1  0
  3 16  2  0
  4 11  1  0
  4 12  1  0
  4 17  1  0
  4 18  2  0
  5 32  1  0
  5 33  1  0
  6 30  1  0
  7 31  1  0
  8 34  1  0
 12 40  1  0
 15 39  1  0
 19 45  2  0
 20 48  2  0
 21 51  2  0
 22 57  1  0
 23 33  1  0
 23 35  1  0
 23 36  1  0
 24 36  2  0
 24 37  1  0
 25 35  1  0
 25 44  2  0
 26 41  2  0
 26 44  1  0
 27 41  1  0
 28 45  1  0
 28 46  1  0
 29 48  1  0
 29 49  1  0
 30 31  1  0
 30 32  1  0
 31 33  1  0
 32 34  1  0
 35 37  2  0
 37 41  1  0
 38 39  1  0
 38 40  1  0
 38 42  1  0
 38 43  1  0
 39 45  1  0
 46 47  1  0
 47 48  1  0
 49 50  1  0
 51 52  1  0
 52 53  2  0
 52 54  1  0
 53 55  1  0
 54 56  2  0
 55 57  2  0
 56 57  1  0
M  END
>  <PUBCHEM_COMPOUND_CID>  (1) 
382

>  <PUBCHEM_COMPOUND_CANONICALIZED>  (1) 
1

>  <PUBCHEM_CACTVS_COMPLEXITY>  (1) 
1540

>  <PUBCHEM_CACTVS_HBOND_ACCEPTOR>  (1) 
23

>  <PUBCHEM_CACTVS_HBOND_DONOR>  (1) 
10

>  <PUBCHEM_CACTVS_ROTATABLE_BOND>  (1) 
21

>  <PUBCHEM_CACTVS_SUBSKEYS>  (1) 
AAADcfB7vgNAAAAAAAAAAAAAAAAAAWJAAAA8QAAAAAAAAFgB/AAAHgQQCCAADhzl3wa39r/MFxioQydzdIKCgC01MLAJ2KFuXNiLfjri3VKedQgv1hP7maf6/ALPIAAAAAAAAABAAAAAAAAAAAAAAAAAAA==

>  <PUBCHEM_IUPAC_OPENEYE_NAME>  (1) 
S-[2-[3-[[4-[[[5-(6-aminopurin-9-yl)-4-hydroxy-3-phosphonooxy-tetrahydrofuran-2-yl]methoxy-hydroxy-phosphoryl]oxy-hydroxy-phosphoryl]oxy-2-hydroxy-3,3-dimethyl-butanoyl]amino]propanoylamino]ethyl] 4-hydroxybenzenecarbothioate

>  <PUBCHEM_IUPAC_CAS_NAME>  (1) 
4-hydroxybenzenecarbothioic acid S-[2-[[3-[[4-[[[5-(6-aminopurin-9-yl)-4-hydroxy-3-phosphonooxy-2-oxolanyl]methoxy-hydroxyphosphoryl]oxy-hydroxyphosphoryl]oxy-2-hydroxy-3,3-dimethyl-1-oxobutyl]amino]-1-oxopropyl]amino]ethyl] ester

>  <PUBCHEM_IUPAC_NAME_MARKUP>  (1) 
<I>S</I>-[2-[3-[[4-[[[5-(6-aminopurin-9-yl)-4-hydroxy-3-phosphonooxyoxolan-2-yl]methoxy-hydroxyphosphoryl]oxy-hydroxyphosphoryl]oxy-2-hydroxy-3,3-dimethylbutanoyl]amino]propanoylamino]ethyl] 4-hydroxybenzenecarbothioate

>  <PUBCHEM_IUPAC_NAME>  (1) 
S-[2-[3-[[4-[[[5-(6-aminopurin-9-yl)-4-hydroxy-3-phosphonooxyoxolan-2-yl]methoxy-hydroxyphosphoryl]oxy-hydroxyphosphoryl]oxy-2-hydroxy-3,3-dimethylbutanoyl]amino]propanoylamino]ethyl] 4-hydroxybenzenecarbothioate

>  <PUBCHEM_IUPAC_SYSTEMATIC_NAME>  (1) 
S-[2-[3-[[4-[[[5-(6-aminopurin-9-yl)-4-oxidanyl-3-phosphonooxy-oxolan-2-yl]methoxy-oxidanyl-phosphoryl]oxy-oxidanyl-phosphoryl]oxy-3,3-dimethyl-2-oxidanyl-butanoyl]amino]propanoylamino]ethyl] 4-oxidanylbenzenecarbothioate

>  <PUBCHEM_IUPAC_TRADITIONAL_NAME>  (1) 
4-hydroxythiobenzoic acid S-[2-[3-[[4-[[(5-adenin-9-yl-4-hydroxy-3-phosphonooxy-tetrahydrofuran-2-yl)methoxy-hydroxy-phosphoryl]oxy-hydroxy-phosphoryl]oxy-2-hydroxy-3,3-dimethyl-butanoyl]amino]propanoylamino]ethyl] ester

>  <PUBCHEM_IUPAC_INCHI>  (1) 
InChI=1S/C28H40N7O18P3S/c1-28(2,22(39)25(40)31-8-7-18(37)30-9-10-57-27(41)15-3-5-16(36)6-4-15)12-50-56(47,48)53-55(45,46)49-11-17-21(52-54(42,43)44)20(38)26(51-17)35-14-34-19-23(29)32-13-33-24(19)35/h3-6,13-14,17,20-22,26,36,38-39H,7-12H2,1-2H3,(H,30,37)(H,31,40)(H,45,46)(H,47,48)(H2,29,32,33)(H2,42,43,44)

>  <PUBCHEM_IUPAC_INCHIKEY>  (1) 
LTVXPVBFJBTNIJ-UHFFFAOYSA-N

>  <PUBCHEM_XLOGP3_AA>  (1) 
-4.3

>  <PUBCHEM_EXACT_MASS>  (1) 
887.13634

>  <PUBCHEM_MOLECULAR_FORMULA>  (1) 
C28H40N7O18P3S

>  <PUBCHEM_MOLECULAR_WEIGHT>  (1) 
887.6

>  <PUBCHEM_OPENEYE_CAN_SMILES>  (1) 
CC(C)(COP(=O)(O)OP(=O)(O)OCC1C(C(C(O1)N2C=NC3=C(N=CN=C32)N)O)OP(=O)(O)O)C(C(=O)NCCC(=O)NCCSC(=O)C4=CC=C(C=C4)O)O

>  <PUBCHEM_OPENEYE_ISO_SMILES>  (1) 
CC(C)(COP(=O)(O)OP(=O)(O)OCC1C(C(C(O1)N2C=NC3=C(N=CN=C32)N)O)OP(=O)(O)O)C(C(=O)NCCC(=O)NCCSC(=O)C4=CC=C(C=C4)O)O

>  <PUBCHEM_CACTVS_TPSA>  (1) 
409

>  <PUBCHEM_MONOISOTOPIC_WEIGHT>  (1) 
887.13634

>  <PUBCHEM_TOTAL_CHARGE>  (1) 
0

>  <PUBCHEM_HEAVY_ATOM_COUNT>  (1) 
57

>  <PUBCHEM_ATOM_DEF_STEREO_COUNT>  (1) 
0

>  <PUBCHEM_ATOM_UDEF_STEREO_COUNT>  (1) 
5

>  <PUBCHEM_BOND_DEF_STEREO_COUNT>  (1) 
0

>  <PUBCHEM_BOND_UDEF_STEREO_COUNT>  (1) 
0

>  <PUBCHEM_ISOTOPIC_ATOM_COUNT>  (1) 
0

>  <PUBCHEM_COMPONENT_COUNT>  (1) 
1

>  <PUBCHEM_CACTVS_TAUTO_COUNT>  (1) 
-1

>  <PUBCHEM_COORDINATE_TYPE>  (1) 
1
5
255

>  <PUBCHEM_BONDANNOTATIONS>  (1) 
39  15  3
33  23  3
23  35  8
23  36  8
24  36  8
24  37  8
25  35  8
25  44  8
26  41  8
26  44  8
32  34  3
35  37  8
37  41  8
52  53  8
52  54  8
53  55  8
54  56  8
55  57  8
56  57  8
30  6  3
31  7  3

$$$$
