385
     RDKit          2D

 11 10  0  0  0  0  0  0  0  0999 V2000
    5.1962   -0.6818    0.0000 O   0  0  0  0  0  0  0  0  0  0  0  0
   -5.1962   -0.6818    0.0000 O   0  0  0  0  0  0  0  0  0  0  0  0
    3.8971    1.5682    0.0000 O   0  0  0  0  0  0  0  0  0  0  0  0
   -3.8971    1.5682    0.0000 O   0  0  0  0  0  0  0  0  0  0  0  0
   -0.0000   -0.6818    0.0000 C   0  0  0  0  0  0  0  0  0  0  0  0
    1.2990    0.0682    0.0000 C   0  0  0  0  0  0  0  0  0  0  0  0
   -1.2990    0.0682    0.0000 C   0  0  0  0  0  0  0  0  0  0  0  0
    2.5981   -0.6818    0.0000 C   0  0  0  0  0  0  0  0  0  0  0  0
   -2.5981   -0.6818    0.0000 C   0  0  0  0  0  0  0  0  0  0  0  0
    3.8971    0.0682    0.0000 C   0  0  0  0  0  0  0  0  0  0  0  0
   -3.8971    0.0682    0.0000 C   0  0  0  0  0  0  0  0  0  0  0  0
  1 10  1  0
  2 11  1  0
  3 10  2  0
  4 11  2  0
  5  6  1  0
  5  7  1  0
  6  8  1  0
  7  9  1  0
  8 10  1  0
  9 11  1  0
M  END
>  <PUBCHEM_COMPOUND_CID>  (1) 
385

>  <PUBCHEM_COMPOUND_CANONICALIZED>  (1) 
1

>  <PUBCHEM_CACTVS_COMPLEXITY>  (1) 
125

>  <PUBCHEM_CACTVS_HBOND_ACCEPTOR>  (1) 
4

>  <PUBCHEM_CACTVS_HBOND_DONOR>  (1) 
2

>  <PUBCHEM_CACTVS_ROTATABLE_BOND>  (1) 
6

>  <PUBCHEM_CACTVS_SUBSKEYS>  (1) 
AAADccBgOAAAAAAAAAAAAAAAAAAAAAAAAAAAAAAAAAAAAAAAAAAAGgAACAAACACAgAAACAAAAgAIAACQCAAAAAAAAAAAAAEAAAAAABIAAAAAQAAEAAAAAAGIyCCAAAAAAAAAAAAAAAAAAAAAAAAAAAAAAA==

>  <PUBCHEM_IUPAC_OPENEYE_NAME>  (1) 
heptanedioic acid

>  <PUBCHEM_IUPAC_CAS_NAME>  (1) 
heptanedioic acid

>  <PUBCHEM_IUPAC_NAME_MARKUP>  (1) 
heptanedioic acid

>  <PUBCHEM_IUPAC_NAME>  (1) 
heptanedioic acid

>  <PUBCHEM_IUPAC_SYSTEMATIC_NAME>  (1) 
heptanedioic acid

>  <PUBCHEM_IUPAC_TRADITIONAL_NAME>  (1) 
pimelic acid

>  <PUBCHEM_IUPAC_INCHI>  (1) 
InChI=1S/C7H12O4/c8-6(9)4-2-1-3-5-7(10)11/h1-5H2,(H,8,9)(H,10,11)

>  <PUBCHEM_IUPAC_INCHIKEY>  (1) 
WLJVNTCWHIRURA-UHFFFAOYSA-N

>  <PUBCHEM_XLOGP3>  (1) 
0.5

>  <PUBCHEM_EXACT_MASS>  (1) 
160.073559

>  <PUBCHEM_MOLECULAR_FORMULA>  (1) 
C7H12O4

>  <PUBCHEM_MOLECULAR_WEIGHT>  (1) 
160.17

>  <PUBCHEM_OPENEYE_CAN_SMILES>  (1) 
C(CCC(=O)O)CCC(=O)O

>  <PUBCHEM_OPENEYE_ISO_SMILES>  (1) 
C(CCC(=O)O)CCC(=O)O

>  <PUBCHEM_CACTVS_TPSA>  (1) 
74.6

>  <PUBCHEM_MONOISOTOPIC_WEIGHT>  (1) 
160.073559

>  <PUBCHEM_TOTAL_CHARGE>  (1) 
0

>  <PUBCHEM_HEAVY_ATOM_COUNT>  (1) 
11

>  <PUBCHEM_ATOM_DEF_STEREO_COUNT>  (1) 
0

>  <PUBCHEM_ATOM_UDEF_STEREO_COUNT>  (1) 
0

>  <PUBCHEM_BOND_DEF_STEREO_COUNT>  (1) 
0

>  <PUBCHEM_BOND_UDEF_STEREO_COUNT>  (1) 
0

>  <PUBCHEM_ISOTOPIC_ATOM_COUNT>  (1) 
0

>  <PUBCHEM_COMPONENT_COUNT>  (1) 
1

>  <PUBCHEM_CACTVS_TAUTO_COUNT>  (1) 
-1

>  <PUBCHEM_COORDINATE_TYPE>  (1) 
1
5
255

$$$$
