386
     RDKit          2D

 69 71  0  0  1  0  0  0  0  0999 V2000
   -8.7493    2.9279    0.0000 S   0  0  0  0  0  0  0  0  0  0  0  0
    9.1324   -1.8615    0.0000 P   0  0  0  0  0  0  0  0  0  0  0  0
    9.6817    3.1450    0.0000 P   0  0  0  0  0  0  0  0  0  0  0  0
    7.1135    3.5376    0.0000 P   0  0  0  0  0  0  0  0  0  0  0  0
   13.2434    0.1828    0.0000 O   0  0  0  0  0  0  0  0  0  0  0  0
   10.4725   -2.5353    0.0000 O   0  0  0  0  0  0  0  0  0  0  0  0
   13.5254   -3.6884    0.0000 O   0  0  0  0  0  0  0  0  0  0  0  0
   10.8525    2.2073    0.0000 O   0  0  0  0  0  0  0  0  0  0  0  0
    9.8062   -0.5213    0.0000 O   0  0  0  0  0  0  0  0  0  0  0  0
    7.7922   -1.1877    0.0000 O   0  0  0  0  0  0  0  0  0  0  0  0
    8.4586   -3.2016    0.0000 O   0  0  0  0  0  0  0  0  0  0  0  0
    8.5110    4.0827    0.0000 O   0  0  0  0  0  0  0  0  0  0  0  0
   10.6194    4.3157    0.0000 O   0  0  0  0  0  0  0  0  0  0  0  0
    5.7160    2.9925    0.0000 O   0  0  0  0  0  0  0  0  0  0  0  0
    8.7440    1.9742    0.0000 O   0  0  0  0  0  0  0  0  0  0  0  0
    2.4677   -1.0631    0.0000 O   0  0  0  0  0  0  0  0  0  0  0  0
  -10.3735    0.9001    0.0000 O   0  0  0  0  0  0  0  0  0  0  0  0
    7.6586    2.1401    0.0000 O   0  0  0  0  0  0  0  0  0  0  0  0
    6.5684    4.9351    0.0000 O   0  0  0  0  0  0  0  0  0  0  0  0
    1.7503    2.8401    0.0000 O   0  0  0  0  0  0  0  0  0  0  0  0
   -3.3861    3.6254    0.0000 O   0  0  0  0  0  0  0  0  0  0  0  0
   15.5654   -1.1413    0.0000 N   0  0  0  0  0  0  0  0  0  0  0  0
   17.9064   -0.5005    0.0000 N   0  0  0  0  0  0  0  0  0  0  0  0
   16.0087   -3.8458    0.0000 N   0  0  0  0  0  0  0  0  0  0  0  0
   18.5218   -4.5048    0.0000 N   0  0  0  0  0  0  0  0  0  0  0  0
   20.3490   -2.6578    0.0000 N   0  0  0  0  0  0  0  0  0  0  0  0
    0.1262    0.8123    0.0000 N   0  0  0  0  0  0  0  0  0  0  0  0
   -5.0103    1.5976    0.0000 N   0  0  0  0  0  0  0  0  0  0  0  0
   11.7261   -1.7116    0.0000 C   0  0  0  0  0  0  0  0  0  0  0  0
   13.1294   -2.2416    0.0000 C   0  0  0  0  0  0  0  0  0  0  0  0
   11.7966   -0.2132    0.0000 C   0  0  0  0  0  0  0  0  0  0  0  0
   14.0671   -1.0708    0.0000 C   0  0  0  0  0  0  0  0  0  0  0  0
   10.6258    0.7245    0.0000 C   0  0  0  0  0  0  0  0  0  0  0  0
  -15.9633   -1.2802    0.0000 C   0  0  0  0  0  0  0  0  0  0  0  0
  -21.0998   -0.4949    0.0000 C   0  0  0  0  0  0  0  0  0  0  0  0
  -17.1341   -0.3424    0.0000 C   0  0  0  0  0  0  0  0  0  0  0  0
  -19.7023    0.0502    0.0000 C   0  0  0  0  0  0  0  0  0  0  0  0
  -18.5315   -0.8875    0.0000 C   0  0  0  0  0  0  0  0  0  0  0  0
  -14.5659   -0.7351    0.0000 C   0  0  0  0  0  0  0  0  0  0  0  0
  -21.3265   -1.9776    0.0000 C   0  0  0  0  0  0  0  0  0  0  0  0
  -14.3392    0.7477    0.0000 C   0  0  0  0  0  0  0  0  0  0  0  0
   16.3891   -2.3949    0.0000 C   0  0  0  0  0  0  0  0  0  0  0  0
  -22.7239   -2.5227    0.0000 C   0  0  0  0  0  0  0  0  0  0  0  0
  -12.9417    1.2927    0.0000 C   0  0  0  0  0  0  0  0  0  0  0  0
  -16.1900   -2.7629    0.0000 C   0  0  0  0  0  0  0  0  0  0  0  0
   16.5031    0.0295    0.0000 C   0  0  0  0  0  0  0  0  0  0  0  0
  -22.2706    0.4428    0.0000 C   0  0  0  0  0  0  0  0  0  0  0  0
  -12.7150    2.7755    0.0000 C   0  0  0  0  0  0  0  0  0  0  0  0
  -22.9506   -4.0055    0.0000 C   0  0  0  0  0  0  0  0  0  0  0  0
   17.8359   -1.9989    0.0000 C   0  0  0  0  0  0  0  0  0  0  0  0
  -24.3481   -4.5505    0.0000 C   0  0  0  0  0  0  0  0  0  0  0  0
  -11.3175    3.3206    0.0000 C   0  0  0  0  0  0  0  0  0  0  0  0
  -13.8858    3.7132    0.0000 C   0  0  0  0  0  0  0  0  0  0  0  0
   18.9022   -3.0538    0.0000 C   0  0  0  0  0  0  0  0  0  0  0  0
  -24.5748   -6.0333    0.0000 C   0  0  0  0  0  0  0  0  0  0  0  0
  -25.5189   -3.6128    0.0000 C   0  0  0  0  0  0  0  0  0  0  0  0
    4.0919    0.9647    0.0000 C   0  0  0  0  0  0  0  0  0  0  0  0
   17.0750   -4.9008    0.0000 C   0  0  0  0  0  0  0  0  0  0  0  0
  -10.1468    2.3829    0.0000 C   0  0  0  0  0  0  0  0  0  0  0  0
    5.4893    1.5098    0.0000 C   0  0  0  0  0  0  0  0  0  0  0  0
    2.6944    0.4196    0.0000 C   0  0  0  0  0  0  0  0  0  0  0  0
    3.5468    2.3622    0.0000 C   0  0  0  0  0  0  0  0  0  0  0  0
    4.6369   -0.4328    0.0000 C   0  0  0  0  0  0  0  0  0  0  0  0
    1.5236    1.3574    0.0000 C   0  0  0  0  0  0  0  0  0  0  0  0
   -7.5785    1.9902    0.0000 C   0  0  0  0  0  0  0  0  0  0  0  0
   -1.0446    1.7500    0.0000 C   0  0  0  0  0  0  0  0  0  0  0  0
   -6.1811    2.5353    0.0000 C   0  0  0  0  0  0  0  0  0  0  0  0
   -2.4421    1.2049    0.0000 C   0  0  0  0  0  0  0  0  0  0  0  0
   -3.6128    2.1426    0.0000 C   0  0  0  0  0  0  0  0  0  0  0  0
  1 59  1  0
  1 65  1  0
  2  6  1  0
  2  9  1  0
  2 10  1  0
  2 11  2  0
  3  8  1  0
  3 12  1  0
  3 13  1  0
  3 15  2  0
  4 12  1  0
  4 14  1  0
  4 18  1  0
  4 19  2  0
  5 31  1  0
  5 32  1  0
  6 29  1  0
  7 30  1  0
  8 33  1  0
 14 60  1  0
 16 61  1  0
 17 59  2  0
 20 64  2  0
 21 69  2  0
 22 32  1  0
 22 42  1  0
 22 46  1  0
 23 46  2  0
 23 50  1  0
 24 42  1  0
 24 58  2  0
 25 54  2  0
 25 58  1  0
 26 54  1  0
 27 64  1  0
 27 66  1  0
 28 67  1  0
 28 69  1  0
 29 30  1  0
 29 31  1  0
 30 32  1  0
 31 33  1  0
 34 36  1  0
 34 39  1  0
 34 45  1  0
 35 37  1  0
 35 40  1  0
 35 47  1  0
 36 38  1  0
 37 38  1  0
 39 41  1  0
 40 43  1  0
 41 44  1  0
 42 50  2  0
 43 49  1  0
 44 48  1  0
 48 52  1  0
 48 53  1  0
 49 51  1  0
 50 54  1  0
 51 55  1  0
 51 56  1  0
 52 59  1  0
 57 60  1  0
 57 61  1  0
 57 62  1  0
 57 63  1  0
 61 64  1  0
 65 67  1  0
 66 68  1  0
 68 69  1  0
M  END
>  <PUBCHEM_COMPOUND_CID>  (1) 
386

>  <PUBCHEM_COMPOUND_CANONICALIZED>  (1) 
1

>  <PUBCHEM_CACTVS_COMPLEXITY>  (1) 
1760

>  <PUBCHEM_CACTVS_HBOND_ACCEPTOR>  (1) 
22

>  <PUBCHEM_CACTVS_HBOND_DONOR>  (1) 
9

>  <PUBCHEM_CACTVS_ROTATABLE_BOND>  (1) 
34

>  <PUBCHEM_CACTVS_SUBSKEYS>  (1) 
AAADcfB/vgNAAAAAAAAAAAAAAAAAAWJAAAAsAAAAAAAAAFgB+AAAHgQQCCAADxzl1waH8L/MFxioQQdxdIKAgC0RELABUKFoVBCDWBpgyEAeRAgPFgLzACH6uMKPAAAAAAAAAAAAAAAAAAAAAAAAAAAAAA==

>  <PUBCHEM_IUPAC_OPENEYE_NAME>  (1) 
S-[2-[3-[[4-[[[5-(6-aminopurin-9-yl)-4-hydroxy-3-phosphonooxy-tetrahydrofuran-2-yl]methoxy-hydroxy-phosphoryl]oxy-hydroxy-phosphoryl]oxy-2-hydroxy-3,3-dimethyl-butanoyl]amino]propanoylamino]ethyl] 3,7,11,15-tetramethylhexadecanethioate

>  <PUBCHEM_IUPAC_CAS_NAME>  (1) 
3,7,11,15-tetramethylhexadecanethioic acid S-[2-[[3-[[4-[[[5-(6-aminopurin-9-yl)-4-hydroxy-3-phosphonooxy-2-oxolanyl]methoxy-hydroxyphosphoryl]oxy-hydroxyphosphoryl]oxy-2-hydroxy-3,3-dimethyl-1-oxobutyl]amino]-1-oxopropyl]amino]ethyl] ester

>  <PUBCHEM_IUPAC_NAME_MARKUP>  (1) 
<I>S</I>-[2-[3-[[4-[[[5-(6-aminopurin-9-yl)-4-hydroxy-3-phosphonooxyoxolan-2-yl]methoxy-hydroxyphosphoryl]oxy-hydroxyphosphoryl]oxy-2-hydroxy-3,3-dimethylbutanoyl]amino]propanoylamino]ethyl] 3,7,11,15-tetramethylhexadecanethioate

>  <PUBCHEM_IUPAC_NAME>  (1) 
S-[2-[3-[[4-[[[5-(6-aminopurin-9-yl)-4-hydroxy-3-phosphonooxyoxolan-2-yl]methoxy-hydroxyphosphoryl]oxy-hydroxyphosphoryl]oxy-2-hydroxy-3,3-dimethylbutanoyl]amino]propanoylamino]ethyl] 3,7,11,15-tetramethylhexadecanethioate

>  <PUBCHEM_IUPAC_SYSTEMATIC_NAME>  (1) 
S-[2-[3-[[4-[[[5-(6-aminopurin-9-yl)-4-oxidanyl-3-phosphonooxy-oxolan-2-yl]methoxy-oxidanyl-phosphoryl]oxy-oxidanyl-phosphoryl]oxy-3,3-dimethyl-2-oxidanyl-butanoyl]amino]propanoylamino]ethyl] 3,7,11,15-tetramethylhexadecanethioate

>  <PUBCHEM_IUPAC_TRADITIONAL_NAME>  (1) 
3,7,11,15-tetramethylhexadecanethioic acid S-[2-[3-[[4-[[(5-adenin-9-yl-4-hydroxy-3-phosphonooxy-tetrahydrofuran-2-yl)methoxy-hydroxy-phosphoryl]oxy-hydroxy-phosphoryl]oxy-2-hydroxy-3,3-dimethyl-butanoyl]amino]propanoylamino]ethyl] ester

>  <PUBCHEM_IUPAC_INCHI>  (1) 
InChI=1S/C41H74N7O17P3S/c1-26(2)11-8-12-27(3)13-9-14-28(4)15-10-16-29(5)21-32(50)69-20-19-43-31(49)17-18-44-39(53)36(52)41(6,7)23-62-68(59,60)65-67(57,58)61-22-30-35(64-66(54,55)56)34(51)40(63-30)48-25-47-33-37(42)45-24-46-38(33)48/h24-30,34-36,40,51-52H,8-23H2,1-7H3,(H,43,49)(H,44,53)(H,57,58)(H,59,60)(H2,42,45,46)(H2,54,55,56)

>  <PUBCHEM_IUPAC_INCHIKEY>  (1) 
NRJQGHHZMSOUEN-UHFFFAOYSA-N

>  <PUBCHEM_XLOGP3_AA>  (1) 
2.9

>  <PUBCHEM_EXACT_MASS>  (1) 
1061.407476

>  <PUBCHEM_MOLECULAR_FORMULA>  (1) 
C41H74N7O17P3S

>  <PUBCHEM_MOLECULAR_WEIGHT>  (1) 
1062.1

>  <PUBCHEM_OPENEYE_CAN_SMILES>  (1) 
CC(C)CCCC(C)CCCC(C)CCCC(C)CC(=O)SCCNC(=O)CCNC(=O)C(C(C)(C)COP(=O)(O)OP(=O)(O)OCC1C(C(C(O1)N2C=NC3=C(N=CN=C32)N)O)OP(=O)(O)O)O

>  <PUBCHEM_OPENEYE_ISO_SMILES>  (1) 
CC(C)CCCC(C)CCCC(C)CCCC(C)CC(=O)SCCNC(=O)CCNC(=O)C(C(C)(C)COP(=O)(O)OP(=O)(O)OCC1C(C(C(O1)N2C=NC3=C(N=CN=C32)N)O)OP(=O)(O)O)O

>  <PUBCHEM_CACTVS_TPSA>  (1) 
389

>  <PUBCHEM_MONOISOTOPIC_WEIGHT>  (1) 
1061.407476

>  <PUBCHEM_TOTAL_CHARGE>  (1) 
0

>  <PUBCHEM_HEAVY_ATOM_COUNT>  (1) 
69

>  <PUBCHEM_ATOM_DEF_STEREO_COUNT>  (1) 
0

>  <PUBCHEM_ATOM_UDEF_STEREO_COUNT>  (1) 
8

>  <PUBCHEM_BOND_DEF_STEREO_COUNT>  (1) 
0

>  <PUBCHEM_BOND_UDEF_STEREO_COUNT>  (1) 
0

>  <PUBCHEM_ISOTOPIC_ATOM_COUNT>  (1) 
0

>  <PUBCHEM_COMPONENT_COUNT>  (1) 
1

>  <PUBCHEM_CACTVS_TAUTO_COUNT>  (1) 
-1

>  <PUBCHEM_COORDINATE_TYPE>  (1) 
1
5
255

>  <PUBCHEM_BONDANNOTATIONS>  (1) 
61  16  3
32  22  3
22  42  8
22  46  8
23  46  8
23  50  8
24  42  8
24  58  8
25  54  8
25  58  8
31  33  3
34  45  3
35  47  3
42  50  8
48  53  3
50  54  8
29  6  3
30  7  3

$$$$
