397
     RDKit          2D

 13 14  0  0  0  0  0  0  0  0999 V2000
   -3.4823    1.0958    0.0000 O   0  0  0  0  0  0  0  0  0  0  0  0
    0.6266    2.1130    0.0000 N   0  0  0  0  0  0  0  0  0  0  0  0
   -4.3799   -1.3423    0.0000 N   0  0  0  0  0  0  0  0  0  0  0  0
    0.7871   -0.3087    0.0000 C   0  0  0  0  0  0  0  0  0  0  0  0
   -0.6670    0.0595    0.0000 C   0  0  0  0  0  0  0  0  0  0  0  0
    1.5866    0.9604    0.0000 C   0  0  0  0  0  0  0  0  0  0  0  0
   -1.8196   -0.9005    0.0000 C   0  0  0  0  0  0  0  0  0  0  0  0
   -0.7662    1.5562    0.0000 C   0  0  0  0  0  0  0  0  0  0  0  0
    1.4864   -1.6357    0.0000 C   0  0  0  0  0  0  0  0  0  0  0  0
    3.0855    0.9026    0.0000 C   0  0  0  0  0  0  0  0  0  0  0  0
    2.9853   -1.6935    0.0000 C   0  0  0  0  0  0  0  0  0  0  0  0
    3.7848   -0.4244    0.0000 C   0  0  0  0  0  0  0  0  0  0  0  0
   -3.2273   -0.3823    0.0000 C   0  0  0  0  0  0  0  0  0  0  0  0
  1 13  2  0
  2  6  1  0
  2  8  1  0
  3 13  1  0
  4  5  1  0
  4  6  2  0
  4  9  1  0
  5  7  1  0
  5  8  2  0
  6 10  1  0
  7 13  1  0
  9 11  2  0
 10 12  2  0
 11 12  1  0
M  END
>  <PUBCHEM_COMPOUND_CID>  (1) 
397

>  <PUBCHEM_COMPOUND_CANONICALIZED>  (1) 
1

>  <PUBCHEM_CACTVS_COMPLEXITY>  (1) 
205

>  <PUBCHEM_CACTVS_HBOND_ACCEPTOR>  (1) 
1

>  <PUBCHEM_CACTVS_HBOND_DONOR>  (1) 
2

>  <PUBCHEM_CACTVS_ROTATABLE_BOND>  (1) 
2

>  <PUBCHEM_CACTVS_SUBSKEYS>  (1) 
AAADccBzIAAAAAAAAAAAAAAAAAAAAWAAAAAwAAAAAAAAAFgB8AAAHgAQAAAADAjBngQ8wPLJkACoAzV3VACCgCAxAiAI2aE4ZJgIIPLAlZGEIAhgkADIyAccicCegAAAAAACAAAAAAAAAAQAAAAAAAAAAA==

>  <PUBCHEM_IUPAC_OPENEYE_NAME>  (1) 
2-(1H-indol-3-yl)acetamide

>  <PUBCHEM_IUPAC_CAS_NAME>  (1) 
2-(1H-indol-3-yl)acetamide

>  <PUBCHEM_IUPAC_NAME_MARKUP>  (1) 
2-(1<I>H</I>-indol-3-yl)acetamide

>  <PUBCHEM_IUPAC_NAME>  (1) 
2-(1H-indol-3-yl)acetamide

>  <PUBCHEM_IUPAC_SYSTEMATIC_NAME>  (1) 
2-(1H-indol-3-yl)ethanamide

>  <PUBCHEM_IUPAC_TRADITIONAL_NAME>  (1) 
2-(1H-indol-3-yl)acetamide

>  <PUBCHEM_IUPAC_INCHI>  (1) 
InChI=1S/C10H10N2O/c11-10(13)5-7-6-12-9-4-2-1-3-8(7)9/h1-4,6,12H,5H2,(H2,11,13)

>  <PUBCHEM_IUPAC_INCHIKEY>  (1) 
ZOAMBXDOGPRZLP-UHFFFAOYSA-N

>  <PUBCHEM_XLOGP3>  (1) 
0.8

>  <PUBCHEM_EXACT_MASS>  (1) 
174.079313

>  <PUBCHEM_MOLECULAR_FORMULA>  (1) 
C10H10N2O

>  <PUBCHEM_MOLECULAR_WEIGHT>  (1) 
174.2

>  <PUBCHEM_OPENEYE_CAN_SMILES>  (1) 
C1=CC=C2C(=C1)C(=CN2)CC(=O)N

>  <PUBCHEM_OPENEYE_ISO_SMILES>  (1) 
C1=CC=C2C(=C1)C(=CN2)CC(=O)N

>  <PUBCHEM_CACTVS_TPSA>  (1) 
58.9

>  <PUBCHEM_MONOISOTOPIC_WEIGHT>  (1) 
174.079313

>  <PUBCHEM_TOTAL_CHARGE>  (1) 
0

>  <PUBCHEM_HEAVY_ATOM_COUNT>  (1) 
13

>  <PUBCHEM_ATOM_DEF_STEREO_COUNT>  (1) 
0

>  <PUBCHEM_ATOM_UDEF_STEREO_COUNT>  (1) 
0

>  <PUBCHEM_BOND_DEF_STEREO_COUNT>  (1) 
0

>  <PUBCHEM_BOND_UDEF_STEREO_COUNT>  (1) 
0

>  <PUBCHEM_ISOTOPIC_ATOM_COUNT>  (1) 
0

>  <PUBCHEM_COMPONENT_COUNT>  (1) 
1

>  <PUBCHEM_CACTVS_TAUTO_COUNT>  (1) 
-1

>  <PUBCHEM_COORDINATE_TYPE>  (1) 
1
5
255

>  <PUBCHEM_BONDANNOTATIONS>  (1) 
10  12  8
11  12  8
2  6  8
2  8  8
4  5  8
4  6  8
4  9  8
5  8  8
6  10  8
9  11  8

$$$$
