40
     RDKit          2D

 11 11  0  0  1  0  0  0  0  0999 V2000
   -0.6302   -1.2983    0.0000 O   0  0  0  0  0  0  0  0  0  0  0  0
   -0.3460    2.6602    0.0000 O   0  0  0  0  0  0  0  0  0  0  0  0
    2.5518    1.8837    0.0000 O   0  0  0  0  0  0  0  0  0  0  0  0
    1.2069   -3.1354    0.0000 O   0  0  0  0  0  0  0  0  0  0  0  0
   -3.5280   -0.5218    0.0000 O   0  0  0  0  0  0  0  0  0  0  0  0
    0.0422    1.2113    0.0000 C   0  0  0  0  0  0  0  0  0  0  0  0
    1.4911    0.8231    0.0000 C   0  0  0  0  0  0  0  0  0  0  0  0
   -1.0184    0.1506    0.0000 C   0  0  0  0  0  0  0  0  0  0  0  0
    1.8793   -0.6258    0.0000 C   0  0  0  0  0  0  0  0  0  0  0  0
    0.8187   -1.6865    0.0000 C   0  0  0  0  0  0  0  0  0  0  0  0
   -2.4673    0.5389    0.0000 C   0  0  0  0  0  0  0  0  0  0  0  0
  1  8  1  0
  1 10  1  0
  2  6  1  0
  3  7  1  0
  4 10  1  0
  5 11  1  0
  6  7  1  0
  6  8  1  0
  7  9  1  0
  8 11  1  0
  9 10  1  0
M  END
>  <PUBCHEM_COMPOUND_CID>  (1) 
40

>  <PUBCHEM_COMPOUND_CANONICALIZED>  (1) 
1

>  <PUBCHEM_CACTVS_COMPLEXITY>  (1) 
128

>  <PUBCHEM_CACTVS_HBOND_ACCEPTOR>  (1) 
5

>  <PUBCHEM_CACTVS_HBOND_DONOR>  (1) 
4

>  <PUBCHEM_CACTVS_ROTATABLE_BOND>  (1) 
1

>  <PUBCHEM_CACTVS_SUBSKEYS>  (1) 
AAADccBgOAAAAAAAAAAAAAAAAAAAAAAAAAAkAAAAAAAAAAAAAAAAGgAACAAACBSwgAMACAAABgAAAAAAAAAAAAAAAAAAAAAAAAAREAIAAAACQAAFAAAHAAHAYAQAAAAAAAAAAAAAAAAAAAAAAAAAAAAAAA==

>  <PUBCHEM_IUPAC_OPENEYE_NAME>  (1) 
6-(hydroxymethyl)tetrahydropyran-2,4,5-triol

>  <PUBCHEM_IUPAC_CAS_NAME>  (1) 
6-(hydroxymethyl)oxane-2,4,5-triol

>  <PUBCHEM_IUPAC_NAME_MARKUP>  (1) 
6-(hydroxymethyl)oxane-2,4,5-triol

>  <PUBCHEM_IUPAC_NAME>  (1) 
6-(hydroxymethyl)oxane-2,4,5-triol

>  <PUBCHEM_IUPAC_SYSTEMATIC_NAME>  (1) 
6-(hydroxymethyl)oxane-2,4,5-triol

>  <PUBCHEM_IUPAC_TRADITIONAL_NAME>  (1) 
6-methyloltetrahydropyran-2,4,5-triol

>  <PUBCHEM_IUPAC_INCHI>  (1) 
InChI=1S/C6H12O5/c7-2-4-6(10)3(8)1-5(9)11-4/h3-10H,1-2H2

>  <PUBCHEM_IUPAC_INCHIKEY>  (1) 
PMMURAAUARKVCB-UHFFFAOYSA-N

>  <PUBCHEM_XLOGP3_AA>  (1) 
-1.6

>  <PUBCHEM_EXACT_MASS>  (1) 
164.068473

>  <PUBCHEM_MOLECULAR_FORMULA>  (1) 
C6H12O5

>  <PUBCHEM_MOLECULAR_WEIGHT>  (1) 
164.16

>  <PUBCHEM_OPENEYE_CAN_SMILES>  (1) 
C1C(C(C(OC1O)CO)O)O

>  <PUBCHEM_OPENEYE_ISO_SMILES>  (1) 
C1C(C(C(OC1O)CO)O)O

>  <PUBCHEM_CACTVS_TPSA>  (1) 
90.2

>  <PUBCHEM_MONOISOTOPIC_WEIGHT>  (1) 
164.068473

>  <PUBCHEM_TOTAL_CHARGE>  (1) 
0

>  <PUBCHEM_HEAVY_ATOM_COUNT>  (1) 
11

>  <PUBCHEM_ATOM_DEF_STEREO_COUNT>  (1) 
0

>  <PUBCHEM_ATOM_UDEF_STEREO_COUNT>  (1) 
4

>  <PUBCHEM_BOND_DEF_STEREO_COUNT>  (1) 
0

>  <PUBCHEM_BOND_UDEF_STEREO_COUNT>  (1) 
0

>  <PUBCHEM_ISOTOPIC_ATOM_COUNT>  (1) 
0

>  <PUBCHEM_COMPONENT_COUNT>  (1) 
1

>  <PUBCHEM_CACTVS_TAUTO_COUNT>  (1) 
-1

>  <PUBCHEM_COORDINATE_TYPE>  (1) 
1
5
255

>  <PUBCHEM_BONDANNOTATIONS>  (1) 
6  2  3
7  3  3
10  4  3
8  11  3

$$$$
