411
     RDKit          2D

 25 27  0  0  1  0  0  0  0  0999 V2000
    2.7719   -1.0229    0.0000 O   0  0  0  0  0  0  0  0  0  0  0  0
    0.3767    2.1414    0.0000 O   0  0  0  0  0  0  0  0  0  0  0  0
    3.0678    3.4674    0.0000 O   0  0  0  0  0  0  0  0  0  0  0  0
    5.5616    1.7998    0.0000 O   0  0  0  0  0  0  0  0  0  0  0  0
   -7.4945    0.7538    0.0000 O   0  0  0  0  0  0  0  0  0  0  0  0
    5.2657   -2.6905    0.0000 O   0  0  0  0  0  0  0  0  0  0  0  0
    6.7099   -0.5308    0.0000 O   0  0  0  0  0  0  0  0  0  0  0  0
    0.1794   -0.8521    0.0000 N   0  0  0  0  0  0  0  0  0  0  0  0
   -5.0674   -0.3661    0.0000 N   0  0  0  0  0  0  0  0  0  0  0  0
    1.5250   -0.1891    0.0000 C   0  0  0  0  0  0  0  0  0  0  0  0
    1.6236    1.3077    0.0000 C   0  0  0  0  0  0  0  0  0  0  0  0
    2.9692    1.9706    0.0000 C   0  0  0  0  0  0  0  0  0  0  0  0
    4.2161    1.1368    0.0000 C   0  0  0  0  0  0  0  0  0  0  0  0
   -3.6599    0.1526    0.0000 C   0  0  0  0  0  0  0  0  0  0  0  0
    4.1174   -0.3599    0.0000 C   0  0  0  0  0  0  0  0  0  0  0  0
   -3.7183    1.6514    0.0000 C   0  0  0  0  0  0  0  0  0  0  0  0
   -2.4130   -0.6812    0.0000 C   0  0  0  0  0  0  0  0  0  0  0  0
   -1.0675   -0.0183    0.0000 C   0  0  0  0  0  0  0  0  0  0  0  0
   -5.1618    2.0591    0.0000 C   0  0  0  0  0  0  0  0  0  0  0  0
   -5.9956    0.8122    0.0000 C   0  0  0  0  0  0  0  0  0  0  0  0
    0.0808   -2.3488    0.0000 C   0  0  0  0  0  0  0  0  0  0  0  0
   -2.5116   -2.1780    0.0000 C   0  0  0  0  0  0  0  0  0  0  0  0
    5.3644   -1.1937    0.0000 C   0  0  0  0  0  0  0  0  0  0  0  0
   -1.2647   -3.0118    0.0000 C   0  0  0  0  0  0  0  0  0  0  0  0
   -5.4751   -1.8097    0.0000 C   0  0  0  0  0  0  0  0  0  0  0  0
  1 10  1  0
  1 15  1  0
  2 11  1  0
  3 12  1  0
  4 13  1  0
  5 20  2  0
  6 23  1  0
  7 23  2  0
  8 10  1  0
  8 18  2  0
  8 21  1  0
  9 14  1  0
  9 20  1  0
  9 25  1  0
 10 11  1  0
 11 12  1  0
 12 13  1  0
 13 15  1  0
 14 16  1  0
 14 17  1  0
 15 23  1  0
 16 19  1  0
 17 18  1  0
 17 22  2  0
 19 20  1  0
 21 24  2  0
 22 24  1  0
M  CHG  1   8   1
M  END
>  <PUBCHEM_COMPOUND_CID>  (1) 
411

>  <PUBCHEM_COMPOUND_CANONICALIZED>  (1) 
1

>  <PUBCHEM_CACTVS_COMPLEXITY>  (1) 
531

>  <PUBCHEM_CACTVS_HBOND_ACCEPTOR>  (1) 
7

>  <PUBCHEM_CACTVS_HBOND_DONOR>  (1) 
4

>  <PUBCHEM_CACTVS_ROTATABLE_BOND>  (1) 
3

>  <PUBCHEM_CACTVS_SUBSKEYS>  (1) 
AAADceB7OAAAAAAAAAAAAAAAAAAAAWAAAAAsSAAAAAAAAAABgAAAHgAACAAADDzhmgY+iJMMFgCoAjH3XAKCgCAxAiAI2CF4ZJgLMPbA0ZWOYAhnpgDbyAf+/IbOAAAAAAAAAAAAAAAAAAAAAAAAAAAAAA==

>  <PUBCHEM_IUPAC_OPENEYE_NAME>  (1) 
3,4,5-trihydroxy-6-[3-(1-methyl-5-oxo-pyrrolidin-2-yl)pyridin-1-ium-1-yl]tetrahydropyran-2-carboxylic acid

>  <PUBCHEM_IUPAC_CAS_NAME>  (1) 
3,4,5-trihydroxy-6-[3-(1-methyl-5-oxo-2-pyrrolidinyl)-1-pyridin-1-iumyl]-2-oxanecarboxylic acid

>  <PUBCHEM_IUPAC_NAME_MARKUP>  (1) 
3,4,5-trihydroxy-6-[3-(1-methyl-5-oxopyrrolidin-2-yl)pyridin-1-ium-1-yl]oxane-2-carboxylic acid

>  <PUBCHEM_IUPAC_NAME>  (1) 
3,4,5-trihydroxy-6-[3-(1-methyl-5-oxopyrrolidin-2-yl)pyridin-1-ium-1-yl]oxane-2-carboxylic acid

>  <PUBCHEM_IUPAC_SYSTEMATIC_NAME>  (1) 
6-[3-(1-methyl-5-oxidanylidene-pyrrolidin-2-yl)pyridin-1-ium-1-yl]-3,4,5-tris(oxidanyl)oxane-2-carboxylic acid

>  <PUBCHEM_IUPAC_TRADITIONAL_NAME>  (1) 
3,4,5-trihydroxy-6-[3-(5-keto-1-methyl-pyrrolidin-2-yl)pyridin-1-ium-1-yl]tetrahydropyran-2-carboxylic acid

>  <PUBCHEM_IUPAC_INCHI>  (1) 
InChI=1S/C16H20N2O7/c1-17-9(4-5-10(17)19)8-3-2-6-18(7-8)15-13(22)11(20)12(21)14(25-15)16(23)24/h2-3,6-7,9,11-15,20-22H,4-5H2,1H3/p+1

>  <PUBCHEM_IUPAC_INCHIKEY>  (1) 
XWZCZWKUGIQPJD-UHFFFAOYSA-O

>  <PUBCHEM_XLOGP3_AA>  (1) 
-1.6

>  <PUBCHEM_EXACT_MASS>  (1) 
353.134876

>  <PUBCHEM_MOLECULAR_FORMULA>  (1) 
C16H21N2O7+

>  <PUBCHEM_MOLECULAR_WEIGHT>  (1) 
353.35

>  <PUBCHEM_OPENEYE_CAN_SMILES>  (1) 
CN1C(CCC1=O)C2=C[N+](=CC=C2)C3C(C(C(C(O3)C(=O)O)O)O)O

>  <PUBCHEM_OPENEYE_ISO_SMILES>  (1) 
CN1C(CCC1=O)C2=C[N+](=CC=C2)C3C(C(C(C(O3)C(=O)O)O)O)O

>  <PUBCHEM_CACTVS_TPSA>  (1) 
131

>  <PUBCHEM_MONOISOTOPIC_WEIGHT>  (1) 
353.134876

>  <PUBCHEM_TOTAL_CHARGE>  (1) 
1

>  <PUBCHEM_HEAVY_ATOM_COUNT>  (1) 
25

>  <PUBCHEM_ATOM_DEF_STEREO_COUNT>  (1) 
0

>  <PUBCHEM_ATOM_UDEF_STEREO_COUNT>  (1) 
6

>  <PUBCHEM_BOND_DEF_STEREO_COUNT>  (1) 
0

>  <PUBCHEM_BOND_UDEF_STEREO_COUNT>  (1) 
0

>  <PUBCHEM_ISOTOPIC_ATOM_COUNT>  (1) 
0

>  <PUBCHEM_COMPONENT_COUNT>  (1) 
1

>  <PUBCHEM_CACTVS_TAUTO_COUNT>  (1) 
-1

>  <PUBCHEM_COORDINATE_TYPE>  (1) 
1
5
255

>  <PUBCHEM_BONDANNOTATIONS>  (1) 
14  17  3
15  23  3
17  18  8
17  22  8
11  2  3
21  24  8
22  24  8
12  3  3
13  4  3
10  8  3
8  18  8
8  21  8

$$$$
