426
     RDKit          2D

 21 20  0  0  1  0  0  0  0  0999 V2000
    2.3082    1.4281    0.0000 O   0  0  0  0  0  0  0  0  0  0  0  0
    3.4667   -2.9203    0.0000 O   0  0  0  0  0  0  0  0  0  0  0  0
    0.4738    3.2678    0.0000 O   0  0  0  0  0  0  0  0  0  0  0  0
    0.9562   -3.5891    0.0000 O   0  0  0  0  0  0  0  0  0  0  0  0
    6.6532    0.2571    0.0000 O   0  0  0  0  0  0  0  0  0  0  0  0
    4.8188    2.0969    0.0000 O   0  0  0  0  0  0  0  0  0  0  0  0
    0.1839   -0.6902    0.0000 N   0  0  0  0  0  0  0  0  0  0  0  0
   -5.2233   -0.5784    0.0000 N   0  0  0  0  0  0  0  0  0  0  0  0
   -7.7338   -1.2472    0.0000 N   0  0  0  0  0  0  0  0  0  0  0  0
   -7.0578    1.2614    0.0000 N   0  0  0  0  0  0  0  0  0  0  0  0
   -0.2023    0.7592    0.0000 C   0  0  0  0  0  0  0  0  0  0  0  0
    1.6322   -1.0805    0.0000 C   0  0  0  0  0  0  0  0  0  0  0  0
   -1.6506    1.1495    0.0000 C   0  0  0  0  0  0  0  0  0  0  0  0
    2.6944   -0.0214    0.0000 C   0  0  0  0  0  0  0  0  0  0  0  0
   -2.7128    0.0904    0.0000 C   0  0  0  0  0  0  0  0  0  0  0  0
    4.1427   -0.4117    0.0000 C   0  0  0  0  0  0  0  0  0  0  0  0
    0.8599    1.8184    0.0000 C   0  0  0  0  0  0  0  0  0  0  0  0
   -4.1611    0.4807    0.0000 C   0  0  0  0  0  0  0  0  0  0  0  0
    2.0183   -2.5300    0.0000 C   0  0  0  0  0  0  0  0  0  0  0  0
    5.2049    0.6474    0.0000 C   0  0  0  0  0  0  0  0  0  0  0  0
   -6.6716   -0.1881    0.0000 C   0  0  0  0  0  0  0  0  0  0  0  0
  1 17  1  0
  2 19  1  0
  3 17  2  0
  4 19  2  0
  5 20  1  0
  6 20  2  0
  7 11  1  0
  7 12  1  0
  8 18  1  0
  8 21  2  3
  9 21  1  0
 10 21  1  0
 11 13  1  0
 11 17  1  0
 12 14  1  0
 12 19  1  0
 13 15  1  0
 14 16  1  0
 15 18  1  0
 16 20  1  0
M  END
>  <PUBCHEM_COMPOUND_CID>  (1) 
426

>  <PUBCHEM_COMPOUND_CANONICALIZED>  (1) 
1

>  <PUBCHEM_CACTVS_COMPLEXITY>  (1) 
408

>  <PUBCHEM_CACTVS_HBOND_ACCEPTOR>  (1) 
8

>  <PUBCHEM_CACTVS_HBOND_DONOR>  (1) 
6

>  <PUBCHEM_CACTVS_ROTATABLE_BOND>  (1) 
11

>  <PUBCHEM_CACTVS_SUBSKEYS>  (1) 
AAADceBzuAAAAAAAAAAAAAAAAAAAAAAAAAAAAAAAAAAAAAAAAAAAHgAQCAAACCjBgAQBCALAAgAoAACQLAAAAAEAAAAAAIGIAAACABIAgCAEQAAEEACQAAC8NwAAAAAAAAAAAAAAAAAAAAAAAAAAAAAAAA==

>  <PUBCHEM_IUPAC_OPENEYE_NAME>  (1) 
2-[(1-carboxy-4-guanidino-butyl)amino]pentanedioic acid

>  <PUBCHEM_IUPAC_CAS_NAME>  (1) 
2-[[1-carboxy-4-(diaminomethylideneamino)butyl]amino]pentanedioic acid

>  <PUBCHEM_IUPAC_NAME_MARKUP>  (1) 
2-[[1-carboxy-4-(diaminomethylideneamino)butyl]amino]pentanedioic acid

>  <PUBCHEM_IUPAC_NAME>  (1) 
2-[[1-carboxy-4-(diaminomethylideneamino)butyl]amino]pentanedioic acid

>  <PUBCHEM_IUPAC_SYSTEMATIC_NAME>  (1) 
2-[[5-[bis(azanyl)methylideneamino]-1-oxidanyl-1-oxidanylidene-pentan-2-yl]amino]pentanedioic acid

>  <PUBCHEM_IUPAC_TRADITIONAL_NAME>  (1) 
2-[(1-carboxy-4-guanidino-butyl)amino]glutaric acid

>  <PUBCHEM_IUPAC_INCHI>  (1) 
InChI=1S/C11H20N4O6/c12-11(13)14-5-1-2-6(9(18)19)15-7(10(20)21)3-4-8(16)17/h6-7,15H,1-5H2,(H,16,17)(H,18,19)(H,20,21)(H4,12,13,14)

>  <PUBCHEM_IUPAC_INCHIKEY>  (1) 
LMKYZBGVKHTLTN-UHFFFAOYSA-N

>  <PUBCHEM_XLOGP3_AA>  (1) 
-4.2

>  <PUBCHEM_EXACT_MASS>  (1) 
304.138284

>  <PUBCHEM_MOLECULAR_FORMULA>  (1) 
C11H20N4O6

>  <PUBCHEM_MOLECULAR_WEIGHT>  (1) 
304.3

>  <PUBCHEM_OPENEYE_CAN_SMILES>  (1) 
C(CC(C(=O)O)NC(CCC(=O)O)C(=O)O)CN=C(N)N

>  <PUBCHEM_OPENEYE_ISO_SMILES>  (1) 
C(CC(C(=O)O)NC(CCC(=O)O)C(=O)O)CN=C(N)N

>  <PUBCHEM_CACTVS_TPSA>  (1) 
188

>  <PUBCHEM_MONOISOTOPIC_WEIGHT>  (1) 
304.138284

>  <PUBCHEM_TOTAL_CHARGE>  (1) 
0

>  <PUBCHEM_HEAVY_ATOM_COUNT>  (1) 
21

>  <PUBCHEM_ATOM_DEF_STEREO_COUNT>  (1) 
0

>  <PUBCHEM_ATOM_UDEF_STEREO_COUNT>  (1) 
2

>  <PUBCHEM_BOND_DEF_STEREO_COUNT>  (1) 
0

>  <PUBCHEM_BOND_UDEF_STEREO_COUNT>  (1) 
0

>  <PUBCHEM_ISOTOPIC_ATOM_COUNT>  (1) 
0

>  <PUBCHEM_COMPONENT_COUNT>  (1) 
1

>  <PUBCHEM_CACTVS_TAUTO_COUNT>  (1) 
-1

>  <PUBCHEM_COORDINATE_TYPE>  (1) 
1
5
255

>  <PUBCHEM_BONDANNOTATIONS>  (1) 
11  13  3
12  14  3

$$$$
