427
     RDKit          2D

 17 16  0  0  1  0  0  0  0  0999 V2000
    0.3202   -2.3175    0.0000 O   0  0  0  0  0  0  0  0  0  0  0  0
   -2.2732   -2.1618    0.0000 O   0  0  0  0  0  0  0  0  0  0  0  0
   -4.5970    2.4858    0.0000 O   0  0  0  0  0  0  0  0  0  0  0  0
   -6.0285    0.3176    0.0000 O   0  0  0  0  0  0  0  0  0  0  0  0
   -2.0935    0.8328    0.0000 N   0  0  0  0  0  0  0  0  0  0  0  0
    4.3451   -0.3050    0.0000 N   0  0  0  0  0  0  0  0  0  0  0  0
    6.9385   -0.4606    0.0000 N   0  0  0  0  0  0  0  0  0  0  0  0
    5.7766    1.8631    0.0000 N   0  0  0  0  0  0  0  0  0  0  0  0
   -0.8417    0.0063    0.0000 C   0  0  0  0  0  0  0  0  0  0  0  0
    0.5000    0.6771    0.0000 C   0  0  0  0  0  0  0  0  0  0  0  0
    1.7517   -0.1493    0.0000 C   0  0  0  0  0  0  0  0  0  0  0  0
   -3.4351    0.1620    0.0000 C   0  0  0  0  0  0  0  0  0  0  0  0
    3.0934    0.5215    0.0000 C   0  0  0  0  0  0  0  0  0  0  0  0
   -0.9316   -1.4910    0.0000 C   0  0  0  0  0  0  0  0  0  0  0  0
   -3.5250   -1.3353    0.0000 C   0  0  0  0  0  0  0  0  0  0  0  0
   -4.6869    0.9885    0.0000 C   0  0  0  0  0  0  0  0  0  0  0  0
    5.6868    0.3658    0.0000 C   0  0  0  0  0  0  0  0  0  0  0  0
  1 14  1  0
  2 14  2  0
  3 16  1  0
  4 16  2  0
  5  9  1  0
  5 12  1  0
  6 13  1  0
  6 17  2  3
  7 17  1  0
  8 17  1  0
  9 10  1  0
  9 14  1  0
 10 11  1  0
 11 13  1  0
 12 15  1  0
 12 16  1  0
M  END
>  <PUBCHEM_COMPOUND_CID>  (1) 
427

>  <PUBCHEM_COMPOUND_CANONICALIZED>  (1) 
1

>  <PUBCHEM_CACTVS_COMPLEXITY>  (1) 
301

>  <PUBCHEM_CACTVS_HBOND_ACCEPTOR>  (1) 
6

>  <PUBCHEM_CACTVS_HBOND_DONOR>  (1) 
5

>  <PUBCHEM_CACTVS_ROTATABLE_BOND>  (1) 
8

>  <PUBCHEM_CACTVS_SUBSKEYS>  (1) 
AAADceBzuAAAAAAAAAAAAAAAAAAAAAAAAAAAAAAAAAAAAAAAAAAAHgAQCAAACCjBgAQDCALAAgAoAACQLAAAAAEAAAAAAIGIAAACABIAgCAEQAAEEACQAACYEQAAAAAAAAAAAAAAAAAAAAAAAAAAAAAAAA==

>  <PUBCHEM_IUPAC_OPENEYE_NAME>  (1) 
2-(1-carboxyethylamino)-5-guanidino-pentanoic acid

>  <PUBCHEM_IUPAC_CAS_NAME>  (1) 
2-(1-carboxyethylamino)-5-(diaminomethylideneamino)pentanoic acid

>  <PUBCHEM_IUPAC_NAME_MARKUP>  (1) 
2-(1-carboxyethylamino)-5-(diaminomethylideneamino)pentanoic acid

>  <PUBCHEM_IUPAC_NAME>  (1) 
2-(1-carboxyethylamino)-5-(diaminomethylideneamino)pentanoic acid

>  <PUBCHEM_IUPAC_SYSTEMATIC_NAME>  (1) 
5-[bis(azanyl)methylideneamino]-2-[(1-oxidanyl-1-oxidanylidene-propan-2-yl)amino]pentanoic acid

>  <PUBCHEM_IUPAC_TRADITIONAL_NAME>  (1) 
2-(1-carboxyethylamino)-5-guanidino-valeric acid

>  <PUBCHEM_IUPAC_INCHI>  (1) 
InChI=1S/C9H18N4O4/c1-5(7(14)15)13-6(8(16)17)3-2-4-12-9(10)11/h5-6,13H,2-4H2,1H3,(H,14,15)(H,16,17)(H4,10,11,12)

>  <PUBCHEM_IUPAC_INCHIKEY>  (1) 
IMXSCCDUAFEIOE-UHFFFAOYSA-N

>  <PUBCHEM_XLOGP3_AA>  (1) 
-3.7

>  <PUBCHEM_EXACT_MASS>  (1) 
246.132805

>  <PUBCHEM_MOLECULAR_FORMULA>  (1) 
C9H18N4O4

>  <PUBCHEM_MOLECULAR_WEIGHT>  (1) 
246.26

>  <PUBCHEM_OPENEYE_CAN_SMILES>  (1) 
CC(C(=O)O)NC(CCCN=C(N)N)C(=O)O

>  <PUBCHEM_OPENEYE_ISO_SMILES>  (1) 
CC(C(=O)O)NC(CCCN=C(N)N)C(=O)O

>  <PUBCHEM_CACTVS_TPSA>  (1) 
151

>  <PUBCHEM_MONOISOTOPIC_WEIGHT>  (1) 
246.132805

>  <PUBCHEM_TOTAL_CHARGE>  (1) 
0

>  <PUBCHEM_HEAVY_ATOM_COUNT>  (1) 
17

>  <PUBCHEM_ATOM_DEF_STEREO_COUNT>  (1) 
0

>  <PUBCHEM_ATOM_UDEF_STEREO_COUNT>  (1) 
2

>  <PUBCHEM_BOND_DEF_STEREO_COUNT>  (1) 
0

>  <PUBCHEM_BOND_UDEF_STEREO_COUNT>  (1) 
0

>  <PUBCHEM_ISOTOPIC_ATOM_COUNT>  (1) 
0

>  <PUBCHEM_COMPONENT_COUNT>  (1) 
1

>  <PUBCHEM_CACTVS_TAUTO_COUNT>  (1) 
-1

>  <PUBCHEM_COORDINATE_TYPE>  (1) 
1
5
255

>  <PUBCHEM_BONDANNOTATIONS>  (1) 
12  15  3
9  10  3

$$$$
