428
     RDKit          2D

  5  4  0  0  0  0  0  0  0  0999 V2000
    2.5981   -0.3000    0.0000 N   0  0  0  0  0  0  0  0  0  0  0  0
   -2.5981   -0.3000    0.0000 N   0  0  0  0  0  0  0  0  0  0  0  0
   -0.0000   -0.3000    0.0000 C   0  0  0  0  0  0  0  0  0  0  0  0
    1.2990    0.4500    0.0000 C   0  0  0  0  0  0  0  0  0  0  0  0
   -1.2990    0.4500    0.0000 C   0  0  0  0  0  0  0  0  0  0  0  0
  1  4  1  0
  2  5  1  0
  3  4  1  0
  3  5  1  0
M  END
>  <PUBCHEM_COMPOUND_CID>  (1) 
428

>  <PUBCHEM_COMPOUND_CANONICALIZED>  (1) 
1

>  <PUBCHEM_CACTVS_COMPLEXITY>  (1) 
12.4

>  <PUBCHEM_CACTVS_HBOND_ACCEPTOR>  (1) 
2

>  <PUBCHEM_CACTVS_HBOND_DONOR>  (1) 
2

>  <PUBCHEM_CACTVS_ROTATABLE_BOND>  (1) 
2

>  <PUBCHEM_CACTVS_SUBSKEYS>  (1) 
AAADccBDAAAAAAAAAAAAAAAAAAAAAAAAAAAAAAAAAAAAAAAAAAAAHAAQAAAACADBAAQAAABAAAAAAAAAAAAAAAAAAAAAAIAAAAAAAAAAQAAAAAAAEAAAAAAAAAAAAAAAAAAAAAAAAAAAAAAAAAAAAAAAAA==

>  <PUBCHEM_IUPAC_OPENEYE_NAME>  (1) 
propane-1,3-diamine

>  <PUBCHEM_IUPAC_CAS_NAME>  (1) 
propane-1,3-diamine

>  <PUBCHEM_IUPAC_NAME_MARKUP>  (1) 
propane-1,3-diamine

>  <PUBCHEM_IUPAC_NAME>  (1) 
propane-1,3-diamine

>  <PUBCHEM_IUPAC_SYSTEMATIC_NAME>  (1) 
propane-1,3-diamine

>  <PUBCHEM_IUPAC_TRADITIONAL_NAME>  (1) 
3-aminopropylamine

>  <PUBCHEM_IUPAC_INCHI>  (1) 
InChI=1S/C3H10N2/c4-2-1-3-5/h1-5H2

>  <PUBCHEM_IUPAC_INCHIKEY>  (1) 
XFNJVJPLKCPIBV-UHFFFAOYSA-N

>  <PUBCHEM_XLOGP3>  (1) 
-1.4

>  <PUBCHEM_EXACT_MASS>  (1) 
74.084398

>  <PUBCHEM_MOLECULAR_FORMULA>  (1) 
C3H10N2

>  <PUBCHEM_MOLECULAR_WEIGHT>  (1) 
74.13

>  <PUBCHEM_OPENEYE_CAN_SMILES>  (1) 
C(CN)CN

>  <PUBCHEM_OPENEYE_ISO_SMILES>  (1) 
C(CN)CN

>  <PUBCHEM_CACTVS_TPSA>  (1) 
52

>  <PUBCHEM_MONOISOTOPIC_WEIGHT>  (1) 
74.084398

>  <PUBCHEM_TOTAL_CHARGE>  (1) 
0

>  <PUBCHEM_HEAVY_ATOM_COUNT>  (1) 
5

>  <PUBCHEM_ATOM_DEF_STEREO_COUNT>  (1) 
0

>  <PUBCHEM_ATOM_UDEF_STEREO_COUNT>  (1) 
0

>  <PUBCHEM_BOND_DEF_STEREO_COUNT>  (1) 
0

>  <PUBCHEM_BOND_UDEF_STEREO_COUNT>  (1) 
0

>  <PUBCHEM_ISOTOPIC_ATOM_COUNT>  (1) 
0

>  <PUBCHEM_COMPONENT_COUNT>  (1) 
1

>  <PUBCHEM_CACTVS_TAUTO_COUNT>  (1) 
-1

>  <PUBCHEM_COORDINATE_TYPE>  (1) 
1
5
255

$$$$
