436
     RDKit          2D

 14 14  0  0  0  0  0  0  0  0999 V2000
    0.3335   -2.3989    0.0000 O   0  0  0  0  0  0  0  0  0  0  0  0
   -3.1952    1.6997    0.0000 O   0  0  0  0  0  0  0  0  0  0  0  0
   -4.6993   -0.4187    0.0000 N   0  0  0  0  0  0  0  0  0  0  0  0
    4.4242   -0.5239    0.0000 N   0  0  0  0  0  0  0  0  0  0  0  0
   -0.7491   -0.0371    0.0000 C   0  0  0  0  0  0  0  0  0  0  0  0
   -2.1127   -0.6621    0.0000 C   0  0  0  0  0  0  0  0  0  0  0  0
    0.4740   -0.9055    0.0000 C   0  0  0  0  0  0  0  0  0  0  0  0
    1.8376   -0.2805    0.0000 C   0  0  0  0  0  0  0  0  0  0  0  0
   -3.3357    0.2063    0.0000 C   0  0  0  0  0  0  0  0  0  0  0  0
    1.9781    1.2129    0.0000 C   0  0  0  0  0  0  0  0  0  0  0  0
    3.0606   -1.1489    0.0000 C   0  0  0  0  0  0  0  0  0  0  0  0
    3.3417    1.8379    0.0000 C   0  0  0  0  0  0  0  0  0  0  0  0
   -5.9224    0.4497    0.0000 C   0  0  0  0  0  0  0  0  0  0  0  0
    4.5647    0.9695    0.0000 C   0  0  0  0  0  0  0  0  0  0  0  0
  1  7  2  0
  2  9  2  0
  3  9  1  0
  3 13  1  0
  4 11  2  0
  4 14  1  0
  5  6  1  0
  5  7  1  0
  6  9  1  0
  7  8  1  0
  8 10  2  0
  8 11  1  0
 10 12  1  0
 12 14  2  0
M  END
>  <PUBCHEM_COMPOUND_CID>  (1) 
436

>  <PUBCHEM_COMPOUND_CANONICALIZED>  (1) 
1

>  <PUBCHEM_CACTVS_COMPLEXITY>  (1) 
216

>  <PUBCHEM_CACTVS_HBOND_ACCEPTOR>  (1) 
3

>  <PUBCHEM_CACTVS_HBOND_DONOR>  (1) 
1

>  <PUBCHEM_CACTVS_ROTATABLE_BOND>  (1) 
4

>  <PUBCHEM_CACTVS_SUBSKEYS>  (1) 
AAADccBzMAAAAAAAAAAAAAAAAAAAAAAAAAAsAAAAAAAAAAABgAAAHgAQAAAADATBmgQ+gJLIEACoArF3VACCgCA1AiAI2KE4ZNgIIPrAlZGEIYhgkgDIyccdiYCOAAAAAAAAAAAAAAAAAAAAAAAAAAAAAA==

>  <PUBCHEM_IUPAC_OPENEYE_NAME>  (1) 
N-methyl-4-oxo-4-(3-pyridyl)butanamide

>  <PUBCHEM_IUPAC_CAS_NAME>  (1) 
N-methyl-4-oxo-4-(3-pyridinyl)butanamide

>  <PUBCHEM_IUPAC_NAME_MARKUP>  (1) 
<I>N</I>-methyl-4-oxo-4-pyridin-3-ylbutanamide

>  <PUBCHEM_IUPAC_NAME>  (1) 
N-methyl-4-oxo-4-pyridin-3-ylbutanamide

>  <PUBCHEM_IUPAC_SYSTEMATIC_NAME>  (1) 
N-methyl-4-oxidanylidene-4-pyridin-3-yl-butanamide

>  <PUBCHEM_IUPAC_TRADITIONAL_NAME>  (1) 
4-keto-N-methyl-4-(3-pyridyl)butyramide

>  <PUBCHEM_IUPAC_INCHI>  (1) 
InChI=1S/C10H12N2O2/c1-11-10(14)5-4-9(13)8-3-2-6-12-7-8/h2-3,6-7H,4-5H2,1H3,(H,11,14)

>  <PUBCHEM_IUPAC_INCHIKEY>  (1) 
WOOSCPWOYYLIHS-UHFFFAOYSA-N

>  <PUBCHEM_XLOGP3_AA>  (1) 
-0.3

>  <PUBCHEM_EXACT_MASS>  (1) 
192.089878

>  <PUBCHEM_MOLECULAR_FORMULA>  (1) 
C10H12N2O2

>  <PUBCHEM_MOLECULAR_WEIGHT>  (1) 
192.21

>  <PUBCHEM_OPENEYE_CAN_SMILES>  (1) 
CNC(=O)CCC(=O)C1=CN=CC=C1

>  <PUBCHEM_OPENEYE_ISO_SMILES>  (1) 
CNC(=O)CCC(=O)C1=CN=CC=C1

>  <PUBCHEM_CACTVS_TPSA>  (1) 
59.1

>  <PUBCHEM_MONOISOTOPIC_WEIGHT>  (1) 
192.089878

>  <PUBCHEM_TOTAL_CHARGE>  (1) 
0

>  <PUBCHEM_HEAVY_ATOM_COUNT>  (1) 
14

>  <PUBCHEM_ATOM_DEF_STEREO_COUNT>  (1) 
0

>  <PUBCHEM_ATOM_UDEF_STEREO_COUNT>  (1) 
0

>  <PUBCHEM_BOND_DEF_STEREO_COUNT>  (1) 
0

>  <PUBCHEM_BOND_UDEF_STEREO_COUNT>  (1) 
0

>  <PUBCHEM_ISOTOPIC_ATOM_COUNT>  (1) 
0

>  <PUBCHEM_COMPONENT_COUNT>  (1) 
1

>  <PUBCHEM_CACTVS_TAUTO_COUNT>  (1) 
-1

>  <PUBCHEM_COORDINATE_TYPE>  (1) 
1
5
255

>  <PUBCHEM_BONDANNOTATIONS>  (1) 
10  12  8
12  14  8
4  11  8
4  14  8
8  10  8
8  11  8

$$$$
