440
     RDKit          2D

 28 31  0  0  1  0  0  0  0  0999 V2000
    7.5181   -2.4063    0.0000 O   0  0  0  0  0  0  0  0  0  0  0  0
   -0.7450    1.1604    0.0000 C   0  0  0  0  0  0  0  0  0  0  0  0
    0.4584    2.0558    0.0000 C   0  0  0  0  0  0  0  0  0  0  0  0
    1.8356    1.4614    0.0000 C   0  0  0  0  0  0  0  0  0  0  0  0
    2.0094   -0.0285    0.0000 C   0  0  0  0  0  0  0  0  0  0  0  0
   -1.9685    2.0282    0.0000 C   0  0  0  0  0  0  0  0  0  0  0  0
   -0.5712   -0.3295    0.0000 C   0  0  0  0  0  0  0  0  0  0  0  0
   -0.0213    3.4770    0.0000 C   0  0  0  0  0  0  0  0  0  0  0  0
    3.3866   -0.6230    0.0000 C   0  0  0  0  0  0  0  0  0  0  0  0
    0.8060   -0.9240    0.0000 C   0  0  0  0  0  0  0  0  0  0  0  0
   -1.5212    3.4600    0.0000 C   0  0  0  0  0  0  0  0  0  0  0  0
    3.0390    2.3568    0.0000 C   0  0  0  0  0  0  0  0  0  0  0  0
   -3.3897    1.5484    0.0000 C   0  0  0  0  0  0  0  0  0  0  0  0
   -2.0354    0.3956    0.0000 C   0  0  0  0  0  0  0  0  0  0  0  0
    4.5900    0.2725    0.0000 C   0  0  0  0  0  0  0  0  0  0  0  0
    4.4162    1.7624    0.0000 C   0  0  0  0  0  0  0  0  0  0  0  0
    3.5603   -2.1129    0.0000 C   0  0  0  0  0  0  0  0  0  0  0  0
    2.1832   -1.5184    0.0000 C   0  0  0  0  0  0  0  0  0  0  0  0
   -3.6848    0.0778    0.0000 C   0  0  0  0  0  0  0  0  0  0  0  0
   -4.5158    2.5394    0.0000 C   0  0  0  0  0  0  0  0  0  0  0  0
    4.9375   -2.7073    0.0000 C   0  0  0  0  0  0  0  0  0  0  0  0
    5.9671   -0.3220    0.0000 C   0  0  0  0  0  0  0  0  0  0  0  0
    6.1409   -1.8119    0.0000 C   0  0  0  0  0  0  0  0  0  0  0  0
   -5.1060   -0.4020    0.0000 C   0  0  0  0  0  0  0  0  0  0  0  0
   -5.4012   -1.8727    0.0000 C   0  0  0  0  0  0  0  0  0  0  0  0
   -6.8224   -2.3524    0.0000 C   0  0  0  0  0  0  0  0  0  0  0  0
   -7.1175   -3.8231    0.0000 C   0  0  0  0  0  0  0  0  0  0  0  0
   -7.9484   -1.3615    0.0000 C   0  0  0  0  0  0  0  0  0  0  0  0
  1 23  2  0
  2  3  1  0
  2  6  1  0
  2  7  1  0
  2 14  1  0
  3  4  1  0
  3  8  1  0
  4  5  1  0
  4 12  1  0
  5  9  1  0
  5 10  1  0
  6 11  1  0
  6 13  1  0
  7 10  1  0
  8 11  1  0
  9 15  1  0
  9 17  1  0
  9 18  1  0
 12 16  1  0
 13 19  1  0
 13 20  1  0
 15 16  1  0
 15 22  2  0
 17 21  1  0
 19 24  1  0
 21 23  1  0
 22 23  1  0
 24 25  1  0
 25 26  1  0
 26 27  1  0
 26 28  1  0
M  END
>  <PUBCHEM_COMPOUND_CID>  (1) 
440

>  <PUBCHEM_COMPOUND_CANONICALIZED>  (1) 
1

>  <PUBCHEM_CACTVS_COMPLEXITY>  (1) 
630

>  <PUBCHEM_CACTVS_HBOND_ACCEPTOR>  (1) 
1

>  <PUBCHEM_CACTVS_HBOND_DONOR>  (1) 
0

>  <PUBCHEM_CACTVS_ROTATABLE_BOND>  (1) 
5

>  <PUBCHEM_CACTVS_SUBSKEYS>  (1) 
AAADcfB4IAAAAAAAAAAAAAAAAAAAAYAAAAAwYIAAAAAAAGDAAAAAGgAAAAAADwSAgAACAAAAAACIAqBSAAAAAAAgAAAACAEAAEgAABIAAQAAAAAAgAAIAQMIiMCPgAAAAAAAAACAAAQAACAAAQAACAAAAA==

>  <PUBCHEM_IUPAC_OPENEYE_NAME>  (1) 
17-(1,5-dimethylhexyl)-10,13-dimethyl-1,2,6,7,8,9,11,12,14,15,16,17-dodecahydrocyclopenta[a]phenanthren-3-one

>  <PUBCHEM_IUPAC_CAS_NAME>  (1) 
10,13-dimethyl-17-(6-methylheptan-2-yl)-1,2,6,7,8,9,11,12,14,15,16,17-dodecahydrocyclopenta[a]phenanthren-3-one

>  <PUBCHEM_IUPAC_NAME_MARKUP>  (1) 
10,13-dimethyl-17-(6-methylheptan-2-yl)-1,2,6,7,8,9,11,12,14,15,16,17-dodecahydrocyclopenta[a]phenanthren-3-one

>  <PUBCHEM_IUPAC_NAME>  (1) 
10,13-dimethyl-17-(6-methylheptan-2-yl)-1,2,6,7,8,9,11,12,14,15,16,17-dodecahydrocyclopenta[a]phenanthren-3-one

>  <PUBCHEM_IUPAC_SYSTEMATIC_NAME>  (1) 
10,13-dimethyl-17-(6-methylheptan-2-yl)-1,2,6,7,8,9,11,12,14,15,16,17-dodecahydrocyclopenta[a]phenanthren-3-one

>  <PUBCHEM_IUPAC_TRADITIONAL_NAME>  (1) 
17-(1,5-dimethylhexyl)-10,13-dimethyl-1,2,6,7,8,9,11,12,14,15,16,17-dodecahydrocyclopenta[a]phenanthren-3-one

>  <PUBCHEM_IUPAC_INCHI>  (1) 
InChI=1S/C27H44O/c1-18(2)7-6-8-19(3)23-11-12-24-22-10-9-20-17-21(28)13-15-26(20,4)25(22)14-16-27(23,24)5/h17-19,22-25H,6-16H2,1-5H3

>  <PUBCHEM_IUPAC_INCHIKEY>  (1) 
NYOXRYYXRWJDKP-UHFFFAOYSA-N

>  <PUBCHEM_XLOGP3>  (1) 
8.4

>  <PUBCHEM_EXACT_MASS>  (1) 
384.339216

>  <PUBCHEM_MOLECULAR_FORMULA>  (1) 
C27H44O

>  <PUBCHEM_MOLECULAR_WEIGHT>  (1) 
384.6

>  <PUBCHEM_OPENEYE_CAN_SMILES>  (1) 
CC(C)CCCC(C)C1CCC2C1(CCC3C2CCC4=CC(=O)CCC34C)C

>  <PUBCHEM_OPENEYE_ISO_SMILES>  (1) 
CC(C)CCCC(C)C1CCC2C1(CCC3C2CCC4=CC(=O)CCC34C)C

>  <PUBCHEM_CACTVS_TPSA>  (1) 
17.1

>  <PUBCHEM_MONOISOTOPIC_WEIGHT>  (1) 
384.339216

>  <PUBCHEM_TOTAL_CHARGE>  (1) 
0

>  <PUBCHEM_HEAVY_ATOM_COUNT>  (1) 
28

>  <PUBCHEM_ATOM_DEF_STEREO_COUNT>  (1) 
0

>  <PUBCHEM_ATOM_UDEF_STEREO_COUNT>  (1) 
7

>  <PUBCHEM_BOND_DEF_STEREO_COUNT>  (1) 
0

>  <PUBCHEM_BOND_UDEF_STEREO_COUNT>  (1) 
0

>  <PUBCHEM_ISOTOPIC_ATOM_COUNT>  (1) 
0

>  <PUBCHEM_COMPONENT_COUNT>  (1) 
1

>  <PUBCHEM_CACTVS_TAUTO_COUNT>  (1) 
-1

>  <PUBCHEM_COORDINATE_TYPE>  (1) 
1
5
255

>  <PUBCHEM_BONDANNOTATIONS>  (1) 
13  20  3
2  14  3
3  8  3
4  12  3
5  10  3
6  11  3
9  18  3

$$$$
