446
     RDKit          2D

 17 17  0  0  1  0  0  0  0  0999 V2000
    2.3605    3.1087    0.0000 Cl  0  0  0  0  0  0  0  0  0  0  0  0
   -5.0935    0.3815    0.0000 O   0  0  0  0  0  0  0  0  0  0  0  0
    0.7555   -3.2296    0.0000 O   0  0  0  0  0  0  0  0  0  0  0  0
   -1.1266    0.2644    0.0000 N   0  0  0  0  0  0  0  0  0  0  0  0
   -2.5288    0.7970    0.0000 C   0  0  0  0  0  0  0  0  0  0  0  0
   -0.8867   -1.2163    0.0000 C   0  0  0  0  0  0  0  0  0  0  0  0
   -3.9311    1.3296    0.0000 C   0  0  0  0  0  0  0  0  0  0  0  0
   -1.9963    2.1993    0.0000 C   0  0  0  0  0  0  0  0  0  0  0  0
   -3.0614   -0.6053    0.0000 C   0  0  0  0  0  0  0  0  0  0  0  0
   -2.0491   -2.1644    0.0000 C   0  0  0  0  0  0  0  0  0  0  0  0
    0.5156   -1.7489    0.0000 C   0  0  0  0  0  0  0  0  0  0  0  0
    1.6779   -0.8008    0.0000 C   0  0  0  0  0  0  0  0  0  0  0  0
    1.4381    0.6799    0.0000 C   0  0  0  0  0  0  0  0  0  0  0  0
    3.0802   -1.3334    0.0000 C   0  0  0  0  0  0  0  0  0  0  0  0
    2.6004    1.6280    0.0000 C   0  0  0  0  0  0  0  0  0  0  0  0
    4.2426   -0.3853    0.0000 C   0  0  0  0  0  0  0  0  0  0  0  0
    4.0027    1.0954    0.0000 C   0  0  0  0  0  0  0  0  0  0  0  0
  1 15  1  0
  2  7  1  0
  3 11  2  0
  4  5  1  0
  4  6  1  0
  5  7  1  0
  5  8  1  0
  5  9  1  0
  6 10  1  0
  6 11  1  0
 11 12  1  0
 12 13  2  0
 12 14  1  0
 13 15  1  0
 14 16  2  0
 15 17  2  0
 16 17  1  0
M  END
>  <PUBCHEM_COMPOUND_CID>  (1) 
446

>  <PUBCHEM_COMPOUND_CANONICALIZED>  (1) 
1

>  <PUBCHEM_CACTVS_COMPLEXITY>  (1) 
268

>  <PUBCHEM_CACTVS_HBOND_ACCEPTOR>  (1) 
3

>  <PUBCHEM_CACTVS_HBOND_DONOR>  (1) 
2

>  <PUBCHEM_CACTVS_ROTATABLE_BOND>  (1) 
5

>  <PUBCHEM_CACTVS_SUBSKEYS>  (1) 
AAADceByMAAEAAAAAAAAAAAAAAAAAAAAAAAwAAAAAAAAAAABAAAAHgIQCAAADK7hmCYyAILAAgCIAqBSAAACAAAkBQAIiIGIAsgKMDKBlzGEYQAgkACYiYcYiICOAAAAIAAAAAAAAABAAAAAAAAAAAAAAA==

>  <PUBCHEM_IUPAC_OPENEYE_NAME>  (1) 
1-(3-chlorophenyl)-2-[(2-hydroxy-1,1-dimethyl-ethyl)amino]propan-1-one

>  <PUBCHEM_IUPAC_CAS_NAME>  (1) 
1-(3-chlorophenyl)-2-[(1-hydroxy-2-methylpropan-2-yl)amino]-1-propanone

>  <PUBCHEM_IUPAC_NAME_MARKUP>  (1) 
1-(3-chlorophenyl)-2-[(1-hydroxy-2-methylpropan-2-yl)amino]propan-1-one

>  <PUBCHEM_IUPAC_NAME>  (1) 
1-(3-chlorophenyl)-2-[(1-hydroxy-2-methylpropan-2-yl)amino]propan-1-one

>  <PUBCHEM_IUPAC_SYSTEMATIC_NAME>  (1) 
1-(3-chlorophenyl)-2-[(2-methyl-1-oxidanyl-propan-2-yl)amino]propan-1-one

>  <PUBCHEM_IUPAC_TRADITIONAL_NAME>  (1) 
1-(3-chlorophenyl)-2-[(2-hydroxy-1,1-dimethyl-ethyl)amino]propan-1-one

>  <PUBCHEM_IUPAC_INCHI>  (1) 
InChI=1S/C13H18ClNO2/c1-9(15-13(2,3)8-16)12(17)10-5-4-6-11(14)7-10/h4-7,9,15-16H,8H2,1-3H3

>  <PUBCHEM_IUPAC_INCHIKEY>  (1) 
AKOAEVOSDHIVFX-UHFFFAOYSA-N

>  <PUBCHEM_XLOGP3_AA>  (1) 
2.2

>  <PUBCHEM_EXACT_MASS>  (1) 
255.102607

>  <PUBCHEM_MOLECULAR_FORMULA>  (1) 
C13H18ClNO2

>  <PUBCHEM_MOLECULAR_WEIGHT>  (1) 
255.74

>  <PUBCHEM_OPENEYE_CAN_SMILES>  (1) 
CC(C(=O)C1=CC(=CC=C1)Cl)NC(C)(C)CO

>  <PUBCHEM_OPENEYE_ISO_SMILES>  (1) 
CC(C(=O)C1=CC(=CC=C1)Cl)NC(C)(C)CO

>  <PUBCHEM_CACTVS_TPSA>  (1) 
49.3

>  <PUBCHEM_MONOISOTOPIC_WEIGHT>  (1) 
255.102607

>  <PUBCHEM_TOTAL_CHARGE>  (1) 
0

>  <PUBCHEM_HEAVY_ATOM_COUNT>  (1) 
17

>  <PUBCHEM_ATOM_DEF_STEREO_COUNT>  (1) 
0

>  <PUBCHEM_ATOM_UDEF_STEREO_COUNT>  (1) 
1

>  <PUBCHEM_BOND_DEF_STEREO_COUNT>  (1) 
0

>  <PUBCHEM_BOND_UDEF_STEREO_COUNT>  (1) 
0

>  <PUBCHEM_ISOTOPIC_ATOM_COUNT>  (1) 
0

>  <PUBCHEM_COMPONENT_COUNT>  (1) 
1

>  <PUBCHEM_CACTVS_TAUTO_COUNT>  (1) 
-1

>  <PUBCHEM_COORDINATE_TYPE>  (1) 
1
5
255

>  <PUBCHEM_BONDANNOTATIONS>  (1) 
12  13  8
12  14  8
13  15  8
14  16  8
15  17  8
16  17  8
6  10  3

$$$$
