447
     RDKit          2D

 10 10  0  0  0  0  0  0  0  0999 V2000
   -2.9197   -1.6440    0.0000 Cl  0  0  0  0  0  0  0  0  0  0  0  0
    2.4878   -1.7359    0.0000 O   0  0  0  0  0  0  0  0  0  0  0  0
    3.1546    0.7752    0.0000 O   0  0  0  0  0  0  0  0  0  0  0  0
    0.6466    0.0971    0.0000 C   0  0  0  0  0  0  0  0  0  0  0  0
   -0.4117   -0.9659    0.0000 C   0  0  0  0  0  0  0  0  0  0  0  0
    0.2551    1.5451    0.0000 C   0  0  0  0  0  0  0  0  0  0  0  0
   -1.8615   -0.5809    0.0000 C   0  0  0  0  0  0  0  0  0  0  0  0
   -1.1946    1.9301    0.0000 C   0  0  0  0  0  0  0  0  0  0  0  0
   -2.2529    0.8671    0.0000 C   0  0  0  0  0  0  0  0  0  0  0  0
    2.0963   -0.2879    0.0000 C   0  0  0  0  0  0  0  0  0  0  0  0
  1  7  1  0
  2 10  1  0
  3 10  2  0
  4  5  2  0
  4  6  1  0
  4 10  1  0
  5  7  1  0
  6  8  2  0
  7  9  2  0
  8  9  1  0
M  END
>  <PUBCHEM_COMPOUND_CID>  (1) 
447

>  <PUBCHEM_COMPOUND_CANONICALIZED>  (1) 
1

>  <PUBCHEM_CACTVS_COMPLEXITY>  (1) 
136

>  <PUBCHEM_CACTVS_HBOND_ACCEPTOR>  (1) 
2

>  <PUBCHEM_CACTVS_HBOND_DONOR>  (1) 
1

>  <PUBCHEM_CACTVS_ROTATABLE_BOND>  (1) 
1

>  <PUBCHEM_CACTVS_SUBSKEYS>  (1) 
AAADcYBgMAAEAAAAAAAAAAAAAAAAAAAAAAAwAAAAAAAAAAABAAAAGgIACAAADAKAmCAwCIAAAgCIAiDSCAACAAAkBQAIiAEACsgIJjKBFxCAcQAkwAEImYeIyCCOAAAAIAAAAAAAAABAAAAAAAAAAAAAAA==

>  <PUBCHEM_IUPAC_OPENEYE_NAME>  (1) 
3-chlorobenzoic acid

>  <PUBCHEM_IUPAC_CAS_NAME>  (1) 
3-chlorobenzoic acid

>  <PUBCHEM_IUPAC_NAME_MARKUP>  (1) 
3-chlorobenzoic acid

>  <PUBCHEM_IUPAC_NAME>  (1) 
3-chlorobenzoic acid

>  <PUBCHEM_IUPAC_SYSTEMATIC_NAME>  (1) 
3-chloranylbenzoic acid

>  <PUBCHEM_IUPAC_TRADITIONAL_NAME>  (1) 
3-chlorobenzoic acid

>  <PUBCHEM_IUPAC_INCHI>  (1) 
InChI=1S/C7H5ClO2/c8-6-3-1-2-5(4-6)7(9)10/h1-4H,(H,9,10)

>  <PUBCHEM_IUPAC_INCHIKEY>  (1) 
LULAYUGMBFYYEX-UHFFFAOYSA-N

>  <PUBCHEM_XLOGP3>  (1) 
2.7

>  <PUBCHEM_EXACT_MASS>  (1) 
155.997807

>  <PUBCHEM_MOLECULAR_FORMULA>  (1) 
C7H5ClO2

>  <PUBCHEM_MOLECULAR_WEIGHT>  (1) 
156.56

>  <PUBCHEM_OPENEYE_CAN_SMILES>  (1) 
C1=CC(=CC(=C1)Cl)C(=O)O

>  <PUBCHEM_OPENEYE_ISO_SMILES>  (1) 
C1=CC(=CC(=C1)Cl)C(=O)O

>  <PUBCHEM_CACTVS_TPSA>  (1) 
37.3

>  <PUBCHEM_MONOISOTOPIC_WEIGHT>  (1) 
155.997807

>  <PUBCHEM_TOTAL_CHARGE>  (1) 
0

>  <PUBCHEM_HEAVY_ATOM_COUNT>  (1) 
10

>  <PUBCHEM_ATOM_DEF_STEREO_COUNT>  (1) 
0

>  <PUBCHEM_ATOM_UDEF_STEREO_COUNT>  (1) 
0

>  <PUBCHEM_BOND_DEF_STEREO_COUNT>  (1) 
0

>  <PUBCHEM_BOND_UDEF_STEREO_COUNT>  (1) 
0

>  <PUBCHEM_ISOTOPIC_ATOM_COUNT>  (1) 
0

>  <PUBCHEM_COMPONENT_COUNT>  (1) 
1

>  <PUBCHEM_CACTVS_TAUTO_COUNT>  (1) 
-1

>  <PUBCHEM_COORDINATE_TYPE>  (1) 
1
5
255

>  <PUBCHEM_BONDANNOTATIONS>  (1) 
4  5  8
4  6  8
5  7  8
6  8  8
7  9  8
8  9  8

$$$$
