448
     RDKit          2D

 14 14  0  0  0  0  0  0  0  0999 V2000
    3.1845    2.7434    0.0000 Cl  0  0  0  0  0  0  0  0  0  0  0  0
   -0.6663   -2.5407    0.0000 O   0  0  0  0  0  0  0  0  0  0  0  0
   -5.4069    0.0624    0.0000 O   0  0  0  0  0  0  0  0  0  0  0  0
   -3.6460    1.9727    0.0000 O   0  0  0  0  0  0  0  0  0  0  0  0
   -1.4402   -0.0606    0.0000 N   0  0  0  0  0  0  0  0  0  0  0  0
    1.0946   -0.6304    0.0000 C   0  0  0  0  0  0  0  0  0  0  0  0
   -0.3373   -1.0773    0.0000 C   0  0  0  0  0  0  0  0  0  0  0  0
   -2.8721   -0.5074    0.0000 C   0  0  0  0  0  0  0  0  0  0  0  0
    1.4236    0.8331    0.0000 C   0  0  0  0  0  0  0  0  0  0  0  0
    2.1976   -1.6471    0.0000 C   0  0  0  0  0  0  0  0  0  0  0  0
    2.8555    1.2799    0.0000 C   0  0  0  0  0  0  0  0  0  0  0  0
    3.6295   -1.2002    0.0000 C   0  0  0  0  0  0  0  0  0  0  0  0
    3.9584    0.2632    0.0000 C   0  0  0  0  0  0  0  0  0  0  0  0
   -3.9750    0.5092    0.0000 C   0  0  0  0  0  0  0  0  0  0  0  0
  1 11  1  0
  2  7  2  0
  3 14  1  0
  4 14  2  0
  5  7  1  0
  5  8  1  0
  6  7  1  0
  6  9  2  0
  6 10  1  0
  8 14  1  0
  9 11  1  0
 10 12  2  0
 11 13  2  0
 12 13  1  0
M  END
>  <PUBCHEM_COMPOUND_CID>  (1) 
448

>  <PUBCHEM_COMPOUND_CANONICALIZED>  (1) 
1

>  <PUBCHEM_CACTVS_COMPLEXITY>  (1) 
232

>  <PUBCHEM_CACTVS_HBOND_ACCEPTOR>  (1) 
3

>  <PUBCHEM_CACTVS_HBOND_DONOR>  (1) 
2

>  <PUBCHEM_CACTVS_ROTATABLE_BOND>  (1) 
3

>  <PUBCHEM_CACTVS_SUBSKEYS>  (1) 
AAADccByMAAEAAAAAAAAAAAAAAAAAAAAAAAwAAAAAAAAAAABAAAAHgIQCAAADALBmCQwCILAAgCIAiHSGACCAAAkBQAIiIGIBsgKIDKBlzGEIQhghgCYiYcYiACOAAAAIAAAAAAAAABAAAAAAAAAAAAAAA==

>  <PUBCHEM_IUPAC_OPENEYE_NAME>  (1) 
2-[(3-chlorobenzoyl)amino]acetic acid

>  <PUBCHEM_IUPAC_CAS_NAME>  (1) 
2-[[(3-chlorophenyl)-oxomethyl]amino]acetic acid

>  <PUBCHEM_IUPAC_NAME_MARKUP>  (1) 
2-[(3-chlorobenzoyl)amino]acetic acid

>  <PUBCHEM_IUPAC_NAME>  (1) 
2-[(3-chlorobenzoyl)amino]acetic acid

>  <PUBCHEM_IUPAC_SYSTEMATIC_NAME>  (1) 
2-[(3-chlorophenyl)carbonylamino]ethanoic acid

>  <PUBCHEM_IUPAC_TRADITIONAL_NAME>  (1) 
2-[(3-chlorobenzoyl)amino]acetic acid

>  <PUBCHEM_IUPAC_INCHI>  (1) 
InChI=1S/C9H8ClNO3/c10-7-3-1-2-6(4-7)9(14)11-5-8(12)13/h1-4H,5H2,(H,11,14)(H,12,13)

>  <PUBCHEM_IUPAC_INCHIKEY>  (1) 
ICYUIIJXZHPESK-UHFFFAOYSA-N

>  <PUBCHEM_XLOGP3>  (1) 
0.9

>  <PUBCHEM_EXACT_MASS>  (1) 
213.019271

>  <PUBCHEM_MOLECULAR_FORMULA>  (1) 
C9H8ClNO3

>  <PUBCHEM_MOLECULAR_WEIGHT>  (1) 
213.62

>  <PUBCHEM_OPENEYE_CAN_SMILES>  (1) 
C1=CC(=CC(=C1)Cl)C(=O)NCC(=O)O

>  <PUBCHEM_OPENEYE_ISO_SMILES>  (1) 
C1=CC(=CC(=C1)Cl)C(=O)NCC(=O)O

>  <PUBCHEM_CACTVS_TPSA>  (1) 
66.4

>  <PUBCHEM_MONOISOTOPIC_WEIGHT>  (1) 
213.019271

>  <PUBCHEM_TOTAL_CHARGE>  (1) 
0

>  <PUBCHEM_HEAVY_ATOM_COUNT>  (1) 
14

>  <PUBCHEM_ATOM_DEF_STEREO_COUNT>  (1) 
0

>  <PUBCHEM_ATOM_UDEF_STEREO_COUNT>  (1) 
0

>  <PUBCHEM_BOND_DEF_STEREO_COUNT>  (1) 
0

>  <PUBCHEM_BOND_UDEF_STEREO_COUNT>  (1) 
0

>  <PUBCHEM_ISOTOPIC_ATOM_COUNT>  (1) 
0

>  <PUBCHEM_COMPONENT_COUNT>  (1) 
1

>  <PUBCHEM_CACTVS_TAUTO_COUNT>  (1) 
-1

>  <PUBCHEM_COORDINATE_TYPE>  (1) 
1
5
255

>  <PUBCHEM_BONDANNOTATIONS>  (1) 
10  12  8
11  13  8
12  13  8
6  10  8
6  9  8
9  11  8

$$$$
