450
     RDKit          2D

 20 23  0  0  1  0  0  0  0  0999 V2000
   -5.2976   -1.1720    0.0000 O   0  0  0  0  0  0  0  0  0  0  0  0
    6.2711   -0.2857    0.0000 O   0  0  0  0  0  0  0  0  0  0  0  0
   -2.7276   -0.4369    0.0000 C   0  0  0  0  0  0  0  0  0  0  0  0
   -1.9996    0.8746    0.0000 C   0  0  0  0  0  0  0  0  0  0  0  0
   -0.4998    0.8998    0.0000 C   0  0  0  0  0  0  0  0  0  0  0  0
    0.2720   -0.3865    0.0000 C   0  0  0  0  0  0  0  0  0  0  0  0
   -4.1999   -0.1497    0.0000 C   0  0  0  0  0  0  0  0  0  0  0  0
   -1.9559   -1.7232    0.0000 C   0  0  0  0  0  0  0  0  0  0  0  0
   -3.0218    1.9722    0.0000 C   0  0  0  0  0  0  0  0  0  0  0  0
   -0.4561   -1.6979    0.0000 C   0  0  0  0  0  0  0  0  0  0  0  0
   -4.3817    1.3392    0.0000 C   0  0  0  0  0  0  0  0  0  0  0  0
    0.2283    2.2112    0.0000 C   0  0  0  0  0  0  0  0  0  0  0  0
   -3.5888   -1.6651    0.0000 C   0  0  0  0  0  0  0  0  0  0  0  0
    1.7717   -0.3613    0.0000 C   0  0  0  0  0  0  0  0  0  0  0  0
    1.7281    2.2364    0.0000 C   0  0  0  0  0  0  0  0  0  0  0  0
    2.4998    0.9502    0.0000 C   0  0  0  0  0  0  0  0  0  0  0  0
    2.5435   -1.6475    0.0000 C   0  0  0  0  0  0  0  0  0  0  0  0
    3.9996    0.9754    0.0000 C   0  0  0  0  0  0  0  0  0  0  0  0
    4.0433   -1.6223    0.0000 C   0  0  0  0  0  0  0  0  0  0  0  0
    4.7713   -0.3109    0.0000 C   0  0  0  0  0  0  0  0  0  0  0  0
  1  7  1  0
  2 20  1  0
  3  4  1  0
  3  7  1  0
  3  8  1  0
  3 13  1  0
  4  5  1  0
  4  9  1  0
  5  6  1  0
  5 12  1  0
  6 10  1  0
  6 14  1  0
  7 11  1  0
  8 10  1  0
  9 11  1  0
 12 15  1  0
 14 16  2  0
 14 17  1  0
 15 16  1  0
 16 18  1  0
 17 19  2  0
 18 20  2  0
 19 20  1  0
M  END
>  <PUBCHEM_COMPOUND_CID>  (1) 
450

>  <PUBCHEM_COMPOUND_CANONICALIZED>  (1) 
1

>  <PUBCHEM_CACTVS_COMPLEXITY>  (1) 
382

>  <PUBCHEM_CACTVS_HBOND_ACCEPTOR>  (1) 
2

>  <PUBCHEM_CACTVS_HBOND_DONOR>  (1) 
2

>  <PUBCHEM_CACTVS_ROTATABLE_BOND>  (1) 
0

>  <PUBCHEM_CACTVS_SUBSKEYS>  (1) 
AAADceB4MAAAAAAAAAAAAAAAAAAAAYAAAAAwYMAAAAAAAGDBAAAAGgAACAAADxSgmAIyBoAAAgCAAiBCAAACAAAgIAAIiAAGCIgINiKCERKAcAAkwBEImAeAwPAPoAABAAAQAADAAAYAACAAAIAADAAAAA==

>  <PUBCHEM_IUPAC_OPENEYE_NAME>  (1) 
13-methyl-6,7,8,9,11,12,14,15,16,17-decahydrocyclopenta[a]phenanthrene-3,17-diol

>  <PUBCHEM_IUPAC_CAS_NAME>  (1) 
13-methyl-6,7,8,9,11,12,14,15,16,17-decahydrocyclopenta[a]phenanthrene-3,17-diol

>  <PUBCHEM_IUPAC_NAME_MARKUP>  (1) 
13-methyl-6,7,8,9,11,12,14,15,16,17-decahydrocyclopenta[a]phenanthrene-3,17-diol

>  <PUBCHEM_IUPAC_NAME>  (1) 
13-methyl-6,7,8,9,11,12,14,15,16,17-decahydrocyclopenta[a]phenanthrene-3,17-diol

>  <PUBCHEM_IUPAC_SYSTEMATIC_NAME>  (1) 
13-methyl-6,7,8,9,11,12,14,15,16,17-decahydrocyclopenta[a]phenanthrene-3,17-diol

>  <PUBCHEM_IUPAC_TRADITIONAL_NAME>  (1) 
13-methyl-6,7,8,9,11,12,14,15,16,17-decahydrocyclopenta[a]phenanthrene-3,17-diol

>  <PUBCHEM_IUPAC_INCHI>  (1) 
InChI=1S/C18H24O2/c1-18-9-8-14-13-5-3-12(19)10-11(13)2-4-15(14)16(18)6-7-17(18)20/h3,5,10,14-17,19-20H,2,4,6-9H2,1H3

>  <PUBCHEM_IUPAC_INCHIKEY>  (1) 
VOXZDWNPVJITMN-UHFFFAOYSA-N

>  <PUBCHEM_XLOGP3>  (1) 
4

>  <PUBCHEM_EXACT_MASS>  (1) 
272.17763

>  <PUBCHEM_MOLECULAR_FORMULA>  (1) 
C18H24O2

>  <PUBCHEM_MOLECULAR_WEIGHT>  (1) 
272.4

>  <PUBCHEM_OPENEYE_CAN_SMILES>  (1) 
CC12CCC3C(C1CCC2O)CCC4=C3C=CC(=C4)O

>  <PUBCHEM_OPENEYE_ISO_SMILES>  (1) 
CC12CCC3C(C1CCC2O)CCC4=C3C=CC(=C4)O

>  <PUBCHEM_CACTVS_TPSA>  (1) 
40.5

>  <PUBCHEM_MONOISOTOPIC_WEIGHT>  (1) 
272.17763

>  <PUBCHEM_TOTAL_CHARGE>  (1) 
0

>  <PUBCHEM_HEAVY_ATOM_COUNT>  (1) 
20

>  <PUBCHEM_ATOM_DEF_STEREO_COUNT>  (1) 
0

>  <PUBCHEM_ATOM_UDEF_STEREO_COUNT>  (1) 
5

>  <PUBCHEM_BOND_DEF_STEREO_COUNT>  (1) 
0

>  <PUBCHEM_BOND_UDEF_STEREO_COUNT>  (1) 
0

>  <PUBCHEM_ISOTOPIC_ATOM_COUNT>  (1) 
0

>  <PUBCHEM_COMPONENT_COUNT>  (1) 
1

>  <PUBCHEM_CACTVS_TAUTO_COUNT>  (1) 
-1

>  <PUBCHEM_COORDINATE_TYPE>  (1) 
1
5
255

>  <PUBCHEM_BONDANNOTATIONS>  (1) 
7  1  3
14  16  8
14  17  8
16  18  8
17  19  8
18  20  8
19  20  8
3  13  3
4  9  3
5  12  3
6  10  3

$$$$
