454
     RDKit          2D

  9  8  0  0  0  0  0  0  0  0999 V2000
    5.1962   -0.3333    0.0000 O   0  0  0  0  0  0  0  0  0  0  0  0
   -1.2990    0.4167    0.0000 C   0  0  0  0  0  0  0  0  0  0  0  0
    0.0000   -0.3333    0.0000 C   0  0  0  0  0  0  0  0  0  0  0  0
   -2.5981   -0.3333    0.0000 C   0  0  0  0  0  0  0  0  0  0  0  0
    1.2990    0.4167    0.0000 C   0  0  0  0  0  0  0  0  0  0  0  0
   -3.8971    0.4167    0.0000 C   0  0  0  0  0  0  0  0  0  0  0  0
    2.5981   -0.3333    0.0000 C   0  0  0  0  0  0  0  0  0  0  0  0
   -5.1962   -0.3333    0.0000 C   0  0  0  0  0  0  0  0  0  0  0  0
    3.8971    0.4167    0.0000 C   0  0  0  0  0  0  0  0  0  0  0  0
  1  9  2  0
  2  3  1  0
  2  4  1  0
  3  5  1  0
  4  6  1  0
  5  7  1  0
  6  8  1  0
  7  9  1  0
M  END
>  <PUBCHEM_COMPOUND_CID>  (1) 
454

>  <PUBCHEM_COMPOUND_CANONICALIZED>  (1) 
1

>  <PUBCHEM_CACTVS_COMPLEXITY>  (1) 
59.6

>  <PUBCHEM_CACTVS_HBOND_ACCEPTOR>  (1) 
1

>  <PUBCHEM_CACTVS_HBOND_DONOR>  (1) 
0

>  <PUBCHEM_CACTVS_ROTATABLE_BOND>  (1) 
6

>  <PUBCHEM_CACTVS_SUBSKEYS>  (1) 
AAADceBwIAAAAAAAAAAAAAAAAAAAAAAAAAAAAAAAAAAAAAAAAAAAGgAAAAAACACggAICAAAAAAAIAAgQgAAAAAAAAAAAAAEAAAAAABIAAAAAAAAAAAAAAAEIiICAAAAAAAAAAAAAAAAAAAAAAAAAAAAAAA==

>  <PUBCHEM_IUPAC_OPENEYE_NAME>  (1) 
octanal

>  <PUBCHEM_IUPAC_CAS_NAME>  (1) 
octanal

>  <PUBCHEM_IUPAC_NAME_MARKUP>  (1) 
octanal

>  <PUBCHEM_IUPAC_NAME>  (1) 
octanal

>  <PUBCHEM_IUPAC_SYSTEMATIC_NAME>  (1) 
octanal

>  <PUBCHEM_IUPAC_TRADITIONAL_NAME>  (1) 
caprylaldehyde

>  <PUBCHEM_IUPAC_INCHI>  (1) 
InChI=1S/C8H16O/c1-2-3-4-5-6-7-8-9/h8H,2-7H2,1H3

>  <PUBCHEM_IUPAC_INCHIKEY>  (1) 
NUJGJRNETVAIRJ-UHFFFAOYSA-N

>  <PUBCHEM_XLOGP3_AA>  (1) 
2.7

>  <PUBCHEM_EXACT_MASS>  (1) 
128.120115

>  <PUBCHEM_MOLECULAR_FORMULA>  (1) 
C8H16O

>  <PUBCHEM_MOLECULAR_WEIGHT>  (1) 
128.21

>  <PUBCHEM_OPENEYE_CAN_SMILES>  (1) 
CCCCCCCC=O

>  <PUBCHEM_OPENEYE_ISO_SMILES>  (1) 
CCCCCCCC=O

>  <PUBCHEM_CACTVS_TPSA>  (1) 
17.1

>  <PUBCHEM_MONOISOTOPIC_WEIGHT>  (1) 
128.120115

>  <PUBCHEM_TOTAL_CHARGE>  (1) 
0

>  <PUBCHEM_HEAVY_ATOM_COUNT>  (1) 
9

>  <PUBCHEM_ATOM_DEF_STEREO_COUNT>  (1) 
0

>  <PUBCHEM_ATOM_UDEF_STEREO_COUNT>  (1) 
0

>  <PUBCHEM_BOND_DEF_STEREO_COUNT>  (1) 
0

>  <PUBCHEM_BOND_UDEF_STEREO_COUNT>  (1) 
0

>  <PUBCHEM_ISOTOPIC_ATOM_COUNT>  (1) 
0

>  <PUBCHEM_COMPONENT_COUNT>  (1) 
1

>  <PUBCHEM_CACTVS_TAUTO_COUNT>  (1) 
-1

>  <PUBCHEM_COORDINATE_TYPE>  (1) 
1
5
255

$$$$
