458
     RDKit          2D

 10  9  0  0  1  0  0  0  0  0999 V2000
   -2.7359   -0.0845    0.0000 S   0  0  0  0  0  0  0  0  0  0  0  0
    3.7892    0.3306    0.0000 O   0  0  0  0  0  0  0  0  0  0  0  0
    2.3762   -1.8496    0.0000 O   0  0  0  0  0  0  0  0  0  0  0  0
    1.2717    1.9622    0.0000 N   0  0  0  0  0  0  0  0  0  0  0  0
   -0.1413   -0.2180    0.0000 C   0  0  0  0  0  0  0  0  0  0  0  0
   -1.4001    0.5978    0.0000 C   0  0  0  0  0  0  0  0  0  0  0  0
    1.1946    0.4642    0.0000 C   0  0  0  0  0  0  0  0  0  0  0  0
   -3.9947    0.7313    0.0000 C   0  0  0  0  0  0  0  0  0  0  0  0
   -2.8131   -1.5825    0.0000 C   0  0  0  0  0  0  0  0  0  0  0  0
    2.4533   -0.3516    0.0000 C   0  0  0  0  0  0  0  0  0  0  0  0
  1  6  1  0
  1  8  1  0
  1  9  1  0
  2 10  1  0
  3 10  2  0
  4  7  1  0
  5  6  1  0
  5  7  1  0
  7 10  1  0
M  CHG  1   1   1
M  END
>  <PUBCHEM_COMPOUND_CID>  (1) 
458

>  <PUBCHEM_COMPOUND_CANONICALIZED>  (1) 
1

>  <PUBCHEM_CACTVS_COMPLEXITY>  (1) 
116

>  <PUBCHEM_CACTVS_HBOND_ACCEPTOR>  (1) 
3

>  <PUBCHEM_CACTVS_HBOND_DONOR>  (1) 
2

>  <PUBCHEM_CACTVS_ROTATABLE_BOND>  (1) 
4

>  <PUBCHEM_CACTVS_SUBSKEYS>  (1) 
AAADccBiMABAAAAAAAAAAAAAAAAAAAAAAAAAAAAAAAAAAAAAAAAAHgQQCAAACCjFwASCCABAAggIAACQCAAAAAAAABAAAIGAAAACABAgAAAAQAAEEAAAAAAAAAAAAAAAAAAAAAAAAAAAAAAAAAAAAAAAAA==

>  <PUBCHEM_IUPAC_OPENEYE_NAME>  (1) 
(3-amino-3-carboxy-propyl)-dimethyl-sulfonium

>  <PUBCHEM_IUPAC_CAS_NAME>  (1) 
(3-amino-3-carboxypropyl)-dimethylsulfonium

>  <PUBCHEM_IUPAC_NAME_MARKUP>  (1) 
(3-amino-3-carboxypropyl)-dimethylsulfanium

>  <PUBCHEM_IUPAC_NAME>  (1) 
(3-amino-3-carboxypropyl)-dimethylsulfanium

>  <PUBCHEM_IUPAC_SYSTEMATIC_NAME>  (1) 
(3-azanyl-4-oxidanyl-4-oxidanylidene-butyl)-dimethyl-sulfanium

>  <PUBCHEM_IUPAC_TRADITIONAL_NAME>  (1) 
(3-amino-3-carboxy-propyl)-dimethyl-sulfonium

>  <PUBCHEM_IUPAC_INCHI>  (1) 
InChI=1S/C6H13NO2S/c1-10(2)4-3-5(7)6(8)9/h5H,3-4,7H2,1-2H3/p+1

>  <PUBCHEM_IUPAC_INCHIKEY>  (1) 
YDBYJHTYSHBBAU-UHFFFAOYSA-O

>  <PUBCHEM_XLOGP3>  (1) 
-3

>  <PUBCHEM_EXACT_MASS>  (1) 
164.074525

>  <PUBCHEM_MOLECULAR_FORMULA>  (1) 
C6H14NO2S+

>  <PUBCHEM_MOLECULAR_WEIGHT>  (1) 
164.25

>  <PUBCHEM_OPENEYE_CAN_SMILES>  (1) 
C[S+](C)CCC(C(=O)O)N

>  <PUBCHEM_OPENEYE_ISO_SMILES>  (1) 
C[S+](C)CCC(C(=O)O)N

>  <PUBCHEM_CACTVS_TPSA>  (1) 
64.3

>  <PUBCHEM_MONOISOTOPIC_WEIGHT>  (1) 
164.074525

>  <PUBCHEM_TOTAL_CHARGE>  (1) 
1

>  <PUBCHEM_HEAVY_ATOM_COUNT>  (1) 
10

>  <PUBCHEM_ATOM_DEF_STEREO_COUNT>  (1) 
0

>  <PUBCHEM_ATOM_UDEF_STEREO_COUNT>  (1) 
1

>  <PUBCHEM_BOND_DEF_STEREO_COUNT>  (1) 
0

>  <PUBCHEM_BOND_UDEF_STEREO_COUNT>  (1) 
0

>  <PUBCHEM_ISOTOPIC_ATOM_COUNT>  (1) 
0

>  <PUBCHEM_COMPONENT_COUNT>  (1) 
1

>  <PUBCHEM_CACTVS_TAUTO_COUNT>  (1) 
-1

>  <PUBCHEM_COORDINATE_TYPE>  (1) 
1
5
255

>  <PUBCHEM_BONDANNOTATIONS>  (1) 
7  4  3

$$$$
