46
     RDKit          2D

 16 15  0  0  1  0  0  0  0  0999 V2000
    4.4712    0.0591    0.0000 P   0  0  0  0  0  0  0  0  0  0  0  0
   -0.6622    1.7617    0.0000 O   0  0  0  0  0  0  0  0  0  0  0  0
    0.4889   -2.0364    0.0000 O   0  0  0  0  0  0  0  0  0  0  0  0
    3.1438   -0.6394    0.0000 O   0  0  0  0  0  0  0  0  0  0  0  0
   -3.2582    1.8635    0.0000 O   0  0  0  0  0  0  0  0  0  0  0  0
    3.7727    1.3866    0.0000 O   0  0  0  0  0  0  0  0  0  0  0  0
    5.7986    0.7576    0.0000 O   0  0  0  0  0  0  0  0  0  0  0  0
    5.1697   -1.2683    0.0000 O   0  0  0  0  0  0  0  0  0  0  0  0
   -5.9131    0.4665    0.0000 O   0  0  0  0  0  0  0  0  0  0  0  0
   -4.7033   -1.8327    0.0000 O   0  0  0  0  0  0  0  0  0  0  0  0
   -0.7210    0.2628    0.0000 C   0  0  0  0  0  0  0  0  0  0  0  0
    0.5477   -0.5375    0.0000 C   0  0  0  0  0  0  0  0  0  0  0  0
   -2.0484   -0.4357    0.0000 C   0  0  0  0  0  0  0  0  0  0  0  0
    1.8751    0.1610    0.0000 C   0  0  0  0  0  0  0  0  0  0  0  0
   -3.3170    0.3647    0.0000 C   0  0  0  0  0  0  0  0  0  0  0  0
   -4.6445   -0.3338    0.0000 C   0  0  0  0  0  0  0  0  0  0  0  0
  1  4  1  0
  1  6  1  0
  1  7  1  0
  1  8  2  0
  2 11  1  0
  3 12  1  0
  4 14  1  0
  5 15  2  0
  9 16  1  0
 10 16  2  0
 11 12  1  0
 11 13  1  0
 12 14  1  0
 13 15  1  0
 15 16  1  0
M  END
>  <PUBCHEM_COMPOUND_CID>  (1) 
46

>  <PUBCHEM_COMPOUND_CANONICALIZED>  (1) 
1

>  <PUBCHEM_CACTVS_COMPLEXITY>  (1) 
307

>  <PUBCHEM_CACTVS_HBOND_ACCEPTOR>  (1) 
9

>  <PUBCHEM_CACTVS_HBOND_DONOR>  (1) 
5

>  <PUBCHEM_CACTVS_ROTATABLE_BOND>  (1) 
7

>  <PUBCHEM_CACTVS_SUBSKEYS>  (1) 
AAADccBgPAIAAAAAAAAAAAAAAAAAAAAAAAAAAAAAAAAAAAAAAAAAGgAACCAACBSggAIACAAAAxAIQICQCIIAAAAAAAAAAAFAAAABEBYAAAAAQAAFIAABAAHKbARAAAAAAAAAAAAAAAAAAAAAAAAAAAAAAA==

>  <PUBCHEM_IUPAC_OPENEYE_NAME>  (1) 
4,5-dihydroxy-2-oxo-6-phosphonooxy-hexanoic acid

>  <PUBCHEM_IUPAC_CAS_NAME>  (1) 
4,5-dihydroxy-2-oxo-6-phosphonooxyhexanoic acid

>  <PUBCHEM_IUPAC_NAME_MARKUP>  (1) 
4,5-dihydroxy-2-oxo-6-phosphonooxyhexanoic acid

>  <PUBCHEM_IUPAC_NAME>  (1) 
4,5-dihydroxy-2-oxo-6-phosphonooxyhexanoic acid

>  <PUBCHEM_IUPAC_SYSTEMATIC_NAME>  (1) 
4,5-bis(oxidanyl)-2-oxidanylidene-6-phosphonooxy-hexanoic acid

>  <PUBCHEM_IUPAC_TRADITIONAL_NAME>  (1) 
4,5-dihydroxy-2-keto-6-phosphonooxy-hexanoic acid

>  <PUBCHEM_IUPAC_INCHI>  (1) 
InChI=1S/C6H11O9P/c7-3(1-4(8)6(10)11)5(9)2-15-16(12,13)14/h3,5,7,9H,1-2H2,(H,10,11)(H2,12,13,14)

>  <PUBCHEM_IUPAC_INCHIKEY>  (1) 
OVPRPPOVAXRCED-UHFFFAOYSA-N

>  <PUBCHEM_XLOGP3_AA>  (1) 
-3.4

>  <PUBCHEM_EXACT_MASS>  (1) 
258.014069

>  <PUBCHEM_MOLECULAR_FORMULA>  (1) 
C6H11O9P

>  <PUBCHEM_MOLECULAR_WEIGHT>  (1) 
258.12

>  <PUBCHEM_OPENEYE_CAN_SMILES>  (1) 
C(C(C(COP(=O)(O)O)O)O)C(=O)C(=O)O

>  <PUBCHEM_OPENEYE_ISO_SMILES>  (1) 
C(C(C(COP(=O)(O)O)O)O)C(=O)C(=O)O

>  <PUBCHEM_CACTVS_TPSA>  (1) 
162

>  <PUBCHEM_MONOISOTOPIC_WEIGHT>  (1) 
258.014069

>  <PUBCHEM_TOTAL_CHARGE>  (1) 
0

>  <PUBCHEM_HEAVY_ATOM_COUNT>  (1) 
16

>  <PUBCHEM_ATOM_DEF_STEREO_COUNT>  (1) 
0

>  <PUBCHEM_ATOM_UDEF_STEREO_COUNT>  (1) 
2

>  <PUBCHEM_BOND_DEF_STEREO_COUNT>  (1) 
0

>  <PUBCHEM_BOND_UDEF_STEREO_COUNT>  (1) 
0

>  <PUBCHEM_ISOTOPIC_ATOM_COUNT>  (1) 
0

>  <PUBCHEM_COMPONENT_COUNT>  (1) 
1

>  <PUBCHEM_CACTVS_TAUTO_COUNT>  (1) 
-1

>  <PUBCHEM_COORDINATE_TYPE>  (1) 
1
5
255

>  <PUBCHEM_BONDANNOTATIONS>  (1) 
11  2  3
12  3  3

$$$$
