461
     RDKit          2D

 28 27  0  0  1  0  0  0  0  0999 V2000
   -5.4680   -0.5507    0.0000 O   0  0  0  0  0  0  0  0  0  0  0  0
   -4.1973    1.7154    0.0000 O   0  0  0  0  0  0  0  0  0  0  0  0
   -8.1223    3.9164    0.0000 O   0  0  0  0  0  0  0  0  0  0  0  0
   -9.3931    1.6503    0.0000 O   0  0  0  0  0  0  0  0  0  0  0  0
   -8.0471   -2.0832    0.0000 N   0  0  0  0  0  0  0  0  0  0  0  0
   -8.0659   -0.5833    0.0000 C   0  0  0  0  0  0  0  0  0  0  0  0
   -6.7764    0.1829    0.0000 C   0  0  0  0  0  0  0  0  0  0  0  0
   -9.5470   -2.1020    0.0000 C   0  0  0  0  0  0  0  0  0  0  0  0
   -6.5472   -2.0644    0.0000 C   0  0  0  0  0  0  0  0  0  0  0  0
   -8.0283   -3.5831    0.0000 C   0  0  0  0  0  0  0  0  0  0  0  0
    4.9234   -0.4205    0.0000 C   0  0  0  0  0  0  0  0  0  0  0  0
    3.6151    0.3132    0.0000 C   0  0  0  0  0  0  0  0  0  0  0  0
    6.2130    0.3458    0.0000 C   0  0  0  0  0  0  0  0  0  0  0  0
    2.3256   -0.4530    0.0000 C   0  0  0  0  0  0  0  0  0  0  0  0
    7.5213   -0.3879    0.0000 C   0  0  0  0  0  0  0  0  0  0  0  0
    1.0172    0.2806    0.0000 C   0  0  0  0  0  0  0  0  0  0  0  0
    8.8109    0.3783    0.0000 C   0  0  0  0  0  0  0  0  0  0  0  0
   -6.7952    1.6828    0.0000 C   0  0  0  0  0  0  0  0  0  0  0  0
   -0.2723   -0.4856    0.0000 C   0  0  0  0  0  0  0  0  0  0  0  0
   10.1192   -0.3553    0.0000 C   0  0  0  0  0  0  0  0  0  0  0  0
   -1.5806    0.2481    0.0000 C   0  0  0  0  0  0  0  0  0  0  0  0
   11.4087    0.4109    0.0000 C   0  0  0  0  0  0  0  0  0  0  0  0
   -2.8702   -0.5182    0.0000 C   0  0  0  0  0  0  0  0  0  0  0  0
   -4.1785    0.2155    0.0000 C   0  0  0  0  0  0  0  0  0  0  0  0
   12.7171   -0.3228    0.0000 C   0  0  0  0  0  0  0  0  0  0  0  0
   -8.1035    2.4165    0.0000 C   0  0  0  0  0  0  0  0  0  0  0  0
   14.0066    0.4434    0.0000 C   0  0  0  0  0  0  0  0  0  0  0  0
   15.3149   -0.2902    0.0000 C   0  0  0  0  0  0  0  0  0  0  0  0
  1  7  1  0
  1 24  1  0
  2 24  2  0
  3 26  1  0
  4 26  2  0
  5  6  1  0
  5  8  1  0
  5  9  1  0
  5 10  1  0
  6  7  1  0
  7 18  1  0
 11 12  1  0
 11 13  1  0
 12 14  1  0
 13 15  1  0
 14 16  1  0
 15 17  1  0
 16 19  1  0
 17 20  1  0
 18 26  1  0
 19 21  1  0
 20 22  1  0
 21 23  1  0
 22 25  1  0
 23 24  1  0
 25 27  1  0
 27 28  1  0
M  CHG  2   3  -1   5   1
M  END
>  <PUBCHEM_COMPOUND_CID>  (1) 
461

>  <PUBCHEM_COMPOUND_CANONICALIZED>  (1) 
1

>  <PUBCHEM_CACTVS_COMPLEXITY>  (1) 
398

>  <PUBCHEM_CACTVS_HBOND_ACCEPTOR>  (1) 
4

>  <PUBCHEM_CACTVS_HBOND_DONOR>  (1) 
0

>  <PUBCHEM_CACTVS_ROTATABLE_BOND>  (1) 
19

>  <PUBCHEM_CACTVS_SUBSKEYS>  (1) 
AAADcfB6OAAAAAAAAAAAAAAAAAAAAAAAAAAAAAAAAAAAAAAAAAAAHgAAAAAACBThgAYCCAMABAAIAACQCAAAAAAAAAAAAAEIAAACABYAgAAHAAAFIAAQAAGsyKCAAAAAAAAAAAAAAAAAAAAAAAAAAAAAAA==

>  <PUBCHEM_IUPAC_OPENEYE_NAME>  (1) 
3-hexadecanoyloxy-4-(trimethylammonio)butanoate

>  <PUBCHEM_IUPAC_CAS_NAME>  (1) 
3-(1-oxohexadecoxy)-4-(trimethylammonio)butanoate

>  <PUBCHEM_IUPAC_NAME_MARKUP>  (1) 
3-hexadecanoyloxy-4-(trimethylazaniumyl)butanoate

>  <PUBCHEM_IUPAC_NAME>  (1) 
3-hexadecanoyloxy-4-(trimethylazaniumyl)butanoate

>  <PUBCHEM_IUPAC_SYSTEMATIC_NAME>  (1) 
3-hexadecanoyloxy-4-(trimethylazaniumyl)butanoate

>  <PUBCHEM_IUPAC_TRADITIONAL_NAME>  (1) 
3-hexadecanoyloxy-4-(trimethylammonio)butyrate

>  <PUBCHEM_IUPAC_INCHI>  (1) 
InChI=1S/C23H45NO4/c1-5-6-7-8-9-10-11-12-13-14-15-16-17-18-23(27)28-21(19-22(25)26)20-24(2,3)4/h21H,5-20H2,1-4H3

>  <PUBCHEM_IUPAC_INCHIKEY>  (1) 
XOMRRQXKHMYMOC-UHFFFAOYSA-N

>  <PUBCHEM_XLOGP3_AA>  (1) 
7.7

>  <PUBCHEM_EXACT_MASS>  (1) 
399.334859

>  <PUBCHEM_MOLECULAR_FORMULA>  (1) 
C23H45NO4

>  <PUBCHEM_MOLECULAR_WEIGHT>  (1) 
399.6

>  <PUBCHEM_OPENEYE_CAN_SMILES>  (1) 
CCCCCCCCCCCCCCCC(=O)OC(CC(=O)[O-])C[N+](C)(C)C

>  <PUBCHEM_OPENEYE_ISO_SMILES>  (1) 
CCCCCCCCCCCCCCCC(=O)OC(CC(=O)[O-])C[N+](C)(C)C

>  <PUBCHEM_CACTVS_TPSA>  (1) 
66.4

>  <PUBCHEM_MONOISOTOPIC_WEIGHT>  (1) 
399.334859

>  <PUBCHEM_TOTAL_CHARGE>  (1) 
0

>  <PUBCHEM_HEAVY_ATOM_COUNT>  (1) 
28

>  <PUBCHEM_ATOM_DEF_STEREO_COUNT>  (1) 
0

>  <PUBCHEM_ATOM_UDEF_STEREO_COUNT>  (1) 
1

>  <PUBCHEM_BOND_DEF_STEREO_COUNT>  (1) 
0

>  <PUBCHEM_BOND_UDEF_STEREO_COUNT>  (1) 
0

>  <PUBCHEM_ISOTOPIC_ATOM_COUNT>  (1) 
0

>  <PUBCHEM_COMPONENT_COUNT>  (1) 
1

>  <PUBCHEM_CACTVS_TAUTO_COUNT>  (1) 
-1

>  <PUBCHEM_COORDINATE_TYPE>  (1) 
1
5
255

>  <PUBCHEM_BONDANNOTATIONS>  (1) 
7  18  3

$$$$
