463
     RDKit          2D

 19 18  0  0  1  0  0  0  0  0999 V2000
    1.9626    2.9529    0.0000 O   0  0  0  0  0  0  0  0  0  0  0  0
   -0.3754    4.0858    0.0000 O   0  0  0  0  0  0  0  0  0  0  0  0
    2.8046    1.7115    0.0000 O   0  0  0  0  0  0  0  0  0  0  0  0
    6.8266   -1.9043    0.0000 O   0  0  0  0  0  0  0  0  0  0  0  0
    4.6765   -3.3626    0.0000 O   0  0  0  0  0  0  0  0  0  0  0  0
    0.6545    0.2531    0.0000 N   0  0  0  0  0  0  0  0  0  0  0  0
   -4.4878   -1.4222    0.0000 N   0  0  0  0  0  0  0  0  0  0  0  0
   -6.6380   -2.8806    0.0000 N   0  0  0  0  0  0  0  0  0  0  0  0
   -6.8259   -0.2893    0.0000 N   0  0  0  0  0  0  0  0  0  0  0  0
   -1.6836    1.3860    0.0000 C   0  0  0  0  0  0  0  0  0  0  0  0
   -0.1875    1.4945    0.0000 C   0  0  0  0  0  0  0  0  0  0  0  0
   -2.3377    0.0361    0.0000 C   0  0  0  0  0  0  0  0  0  0  0  0
   -3.8338   -0.0723    0.0000 C   0  0  0  0  0  0  0  0  0  0  0  0
    0.4666    2.8444    0.0000 C   0  0  0  0  0  0  0  0  0  0  0  0
    2.1505    0.3616    0.0000 C   0  0  0  0  0  0  0  0  0  0  0  0
    2.9925   -0.8798    0.0000 C   0  0  0  0  0  0  0  0  0  0  0  0
    4.4886   -0.7713    0.0000 C   0  0  0  0  0  0  0  0  0  0  0  0
    5.3306   -2.0127    0.0000 C   0  0  0  0  0  0  0  0  0  0  0  0
   -5.9839   -1.5307    0.0000 C   0  0  0  0  0  0  0  0  0  0  0  0
  1 14  1  0
  2 14  2  0
  3 15  2  0
  4 18  1  0
  5 18  2  0
  6 11  1  0
  6 15  1  0
  7 13  1  0
  7 19  2  3
  8 19  1  0
  9 19  1  0
 10 11  1  0
 10 12  1  0
 11 14  1  0
 12 13  1  0
 15 16  1  0
 16 17  1  0
 17 18  1  0
M  END
>  <PUBCHEM_COMPOUND_CID>  (1) 
463

>  <PUBCHEM_COMPOUND_CANONICALIZED>  (1) 
1

>  <PUBCHEM_CACTVS_COMPLEXITY>  (1) 
365

>  <PUBCHEM_CACTVS_HBOND_ACCEPTOR>  (1) 
6

>  <PUBCHEM_CACTVS_HBOND_DONOR>  (1) 
5

>  <PUBCHEM_CACTVS_ROTATABLE_BOND>  (1) 
9

>  <PUBCHEM_CACTVS_SUBSKEYS>  (1) 
AAADceBzuAAAAAAAAAAAAAAAAAAAAAAAAAAAAAAAAAAAAAAAAAAAHgAQCAAACCjBgAQBCALAAgAoAAGQPAAAAAEAAAAAAIGIAAACABIAgCAEQAAEFgCQAAC/EQAAAAAAAAAAAAAAAAAAAAAAAAAAAAAAAA==

>  <PUBCHEM_IUPAC_OPENEYE_NAME>  (1) 
2-(3-carboxypropanoylamino)-5-guanidino-pentanoic acid

>  <PUBCHEM_IUPAC_CAS_NAME>  (1) 
2-[(3-carboxy-1-oxopropyl)amino]-5-(diaminomethylideneamino)pentanoic acid

>  <PUBCHEM_IUPAC_NAME_MARKUP>  (1) 
2-(3-carboxypropanoylamino)-5-(diaminomethylideneamino)pentanoic acid

>  <PUBCHEM_IUPAC_NAME>  (1) 
2-(3-carboxypropanoylamino)-5-(diaminomethylideneamino)pentanoic acid

>  <PUBCHEM_IUPAC_SYSTEMATIC_NAME>  (1) 
5-[bis(azanyl)methylideneamino]-2-[(4-oxidanyl-4-oxidanylidene-butanoyl)amino]pentanoic acid

>  <PUBCHEM_IUPAC_TRADITIONAL_NAME>  (1) 
2-(3-carboxypropanoylamino)-5-guanidino-valeric acid

>  <PUBCHEM_IUPAC_INCHI>  (1) 
InChI=1S/C10H18N4O5/c11-10(12)13-5-1-2-6(9(18)19)14-7(15)3-4-8(16)17/h6H,1-5H2,(H,14,15)(H,16,17)(H,18,19)(H4,11,12,13)

>  <PUBCHEM_IUPAC_INCHIKEY>  (1) 
UMOXFSXIFQOWTD-UHFFFAOYSA-N

>  <PUBCHEM_XLOGP3_AA>  (1) 
-2.2

>  <PUBCHEM_EXACT_MASS>  (1) 
274.12772

>  <PUBCHEM_MOLECULAR_FORMULA>  (1) 
C10H18N4O5

>  <PUBCHEM_MOLECULAR_WEIGHT>  (1) 
274.27

>  <PUBCHEM_OPENEYE_CAN_SMILES>  (1) 
C(CC(C(=O)O)NC(=O)CCC(=O)O)CN=C(N)N

>  <PUBCHEM_OPENEYE_ISO_SMILES>  (1) 
C(CC(C(=O)O)NC(=O)CCC(=O)O)CN=C(N)N

>  <PUBCHEM_CACTVS_TPSA>  (1) 
168

>  <PUBCHEM_MONOISOTOPIC_WEIGHT>  (1) 
274.12772

>  <PUBCHEM_TOTAL_CHARGE>  (1) 
0

>  <PUBCHEM_HEAVY_ATOM_COUNT>  (1) 
19

>  <PUBCHEM_ATOM_DEF_STEREO_COUNT>  (1) 
0

>  <PUBCHEM_ATOM_UDEF_STEREO_COUNT>  (1) 
1

>  <PUBCHEM_BOND_DEF_STEREO_COUNT>  (1) 
0

>  <PUBCHEM_BOND_UDEF_STEREO_COUNT>  (1) 
0

>  <PUBCHEM_ISOTOPIC_ATOM_COUNT>  (1) 
0

>  <PUBCHEM_COMPONENT_COUNT>  (1) 
1

>  <PUBCHEM_CACTVS_TAUTO_COUNT>  (1) 
-1

>  <PUBCHEM_COORDINATE_TYPE>  (1) 
1
5
255

>  <PUBCHEM_BONDANNOTATIONS>  (1) 
11  10  3

$$$$
