465
     RDKit          2D

 15 15  0  0  1  0  0  0  0  0999 V2000
    2.9267   -2.0596    0.0000 S   0  0  0  0  0  0  0  0  0  0  0  0
   -2.8646   -0.9119    0.0000 P   0  0  0  0  0  0  0  0  0  0  0  0
    0.2350   -0.4567    0.0000 O   0  0  0  0  0  0  0  0  0  0  0  0
   -2.2735    0.4667    0.0000 O   0  0  0  0  0  0  0  0  0  0  0  0
    2.5201    2.6807    0.0000 O   0  0  0  0  0  0  0  0  0  0  0  0
   -0.6810    3.3151    0.0000 O   0  0  0  0  0  0  0  0  0  0  0  0
   -1.4860   -1.5030    0.0000 O   0  0  0  0  0  0  0  0  0  0  0  0
   -3.4557   -2.2905    0.0000 O   0  0  0  0  0  0  0  0  0  0  0  0
   -4.2432   -0.3208    0.0000 O   0  0  0  0  0  0  0  0  0  0  0  0
    1.4194    1.6617    0.0000 C   0  0  0  0  0  0  0  0  0  0  0  0
    1.5968    0.1723    0.0000 C   0  0  0  0  0  0  0  0  0  0  0  0
   -0.0520    1.9533    0.0000 C   0  0  0  0  0  0  0  0  0  0  0  0
   -0.7840    0.6441    0.0000 C   0  0  0  0  0  0  0  0  0  0  0  0
    2.9060   -0.5597    0.0000 C   0  0  0  0  0  0  0  0  0  0  0  0
    4.2360   -2.7916    0.0000 C   0  0  0  0  0  0  0  0  0  0  0  0
  1 14  1  0
  1 15  1  0
  2  4  1  0
  2  7  1  0
  2  8  1  0
  2  9  2  0
  3 11  1  0
  3 13  1  0
  4 13  1  0
  5 10  1  0
  6 12  1  0
 10 11  1  0
 10 12  1  0
 11 14  1  0
 12 13  1  0
M  END
>  <PUBCHEM_COMPOUND_CID>  (1) 
465

>  <PUBCHEM_COMPOUND_CANONICALIZED>  (1) 
1

>  <PUBCHEM_CACTVS_COMPLEXITY>  (1) 
256

>  <PUBCHEM_CACTVS_HBOND_ACCEPTOR>  (1) 
8

>  <PUBCHEM_CACTVS_HBOND_DONOR>  (1) 
4

>  <PUBCHEM_CACTVS_ROTATABLE_BOND>  (1) 
4

>  <PUBCHEM_CACTVS_SUBSKEYS>  (1) 
AAADccBgOAJAAAAAAAAAAAAAAAAAASAAAAAAAAAAAAAAAAAAAAAAGgQACCAACBS0wAOCCAAABxgAQAAAAIAAAAAAABAAAAAAAAAREAIgAAACQAAFAAAHAADAAAAAAAAAAAAAAAAAAAAAAAAAAAAAAAAAAA==

>  <PUBCHEM_IUPAC_OPENEYE_NAME>  (1) 
[3,4-dihydroxy-5-(methylsulfanylmethyl)tetrahydrofuran-2-yl] dihydrogen phosphate

>  <PUBCHEM_IUPAC_CAS_NAME>  (1) 
[3,4-dihydroxy-5-[(methylthio)methyl]-2-oxolanyl] dihydrogen phosphate

>  <PUBCHEM_IUPAC_NAME_MARKUP>  (1) 
[3,4-dihydroxy-5-(methylsulfanylmethyl)oxolan-2-yl] dihydrogen phosphate

>  <PUBCHEM_IUPAC_NAME>  (1) 
[3,4-dihydroxy-5-(methylsulfanylmethyl)oxolan-2-yl] dihydrogen phosphate

>  <PUBCHEM_IUPAC_SYSTEMATIC_NAME>  (1) 
[5-(methylsulfanylmethyl)-3,4-bis(oxidanyl)oxolan-2-yl] dihydrogen phosphate

>  <PUBCHEM_IUPAC_TRADITIONAL_NAME>  (1) 
[3,4-dihydroxy-5-[(methylthio)methyl]tetrahydrofuran-2-yl] dihydrogen phosphate

>  <PUBCHEM_IUPAC_INCHI>  (1) 
InChI=1S/C6H13O7PS/c1-15-2-3-4(7)5(8)6(12-3)13-14(9,10)11/h3-8H,2H2,1H3,(H2,9,10,11)

>  <PUBCHEM_IUPAC_INCHIKEY>  (1) 
JTFITTQBRJDSTL-UHFFFAOYSA-N

>  <PUBCHEM_XLOGP3_AA>  (1) 
-2.3

>  <PUBCHEM_EXACT_MASS>  (1) 
260.011961

>  <PUBCHEM_MOLECULAR_FORMULA>  (1) 
C6H13O7PS

>  <PUBCHEM_MOLECULAR_WEIGHT>  (1) 
260.2

>  <PUBCHEM_OPENEYE_CAN_SMILES>  (1) 
CSCC1C(C(C(O1)OP(=O)(O)O)O)O

>  <PUBCHEM_OPENEYE_ISO_SMILES>  (1) 
CSCC1C(C(C(O1)OP(=O)(O)O)O)O

>  <PUBCHEM_CACTVS_TPSA>  (1) 
142

>  <PUBCHEM_MONOISOTOPIC_WEIGHT>  (1) 
260.011961

>  <PUBCHEM_TOTAL_CHARGE>  (1) 
0

>  <PUBCHEM_HEAVY_ATOM_COUNT>  (1) 
15

>  <PUBCHEM_ATOM_DEF_STEREO_COUNT>  (1) 
0

>  <PUBCHEM_ATOM_UDEF_STEREO_COUNT>  (1) 
4

>  <PUBCHEM_BOND_DEF_STEREO_COUNT>  (1) 
0

>  <PUBCHEM_BOND_UDEF_STEREO_COUNT>  (1) 
0

>  <PUBCHEM_ISOTOPIC_ATOM_COUNT>  (1) 
0

>  <PUBCHEM_COMPONENT_COUNT>  (1) 
1

>  <PUBCHEM_CACTVS_TAUTO_COUNT>  (1) 
-1

>  <PUBCHEM_COORDINATE_TYPE>  (1) 
1
5
255

>  <PUBCHEM_BONDANNOTATIONS>  (1) 
11  14  3
13  4  3
10  5  3
12  6  3

$$$$
