472
     RDKit          2D

 15 15  0  0  0  0  0  0  0  0999 V2000
   -0.1890   -2.3568    0.0000 O   0  0  0  0  0  0  0  0  0  0  0  0
   -2.7402   -1.8658    0.0000 O   0  0  0  0  0  0  0  0  0  0  0  0
   -5.0080    0.0982    0.0000 O   0  0  0  0  0  0  0  0  0  0  0  0
   -3.3072    2.0622    0.0000 O   0  0  0  0  0  0  0  0  0  0  0  0
    0.6614    2.0622    0.0000 N   0  0  0  0  0  0  0  0  0  0  0  0
    1.5119   -0.3928    0.0000 C   0  0  0  0  0  0  0  0  0  0  0  0
    0.0945   -0.8838    0.0000 C   0  0  0  0  0  0  0  0  0  0  0  0
   -1.0394    0.0982    0.0000 C   0  0  0  0  0  0  0  0  0  0  0  0
    1.7953    1.0802    0.0000 C   0  0  0  0  0  0  0  0  0  0  0  0
    2.6458   -1.3748    0.0000 C   0  0  0  0  0  0  0  0  0  0  0  0
    3.2127    1.5712    0.0000 C   0  0  0  0  0  0  0  0  0  0  0  0
    4.0631   -0.8838    0.0000 C   0  0  0  0  0  0  0  0  0  0  0  0
    4.3466    0.5892    0.0000 C   0  0  0  0  0  0  0  0  0  0  0  0
   -2.4568   -0.3928    0.0000 C   0  0  0  0  0  0  0  0  0  0  0  0
   -3.5907    0.5892    0.0000 C   0  0  0  0  0  0  0  0  0  0  0  0
  1  7  2  0
  2 14  2  0
  3 15  1  0
  4 15  2  0
  5  9  1  0
  6  7  1  0
  6  9  2  0
  6 10  1  0
  7  8  1  0
  8 14  1  0
  9 11  1  0
 10 12  2  0
 11 13  2  0
 12 13  1  0
 14 15  1  0
M  END
>  <PUBCHEM_COMPOUND_CID>  (1) 
472

>  <PUBCHEM_COMPOUND_CANONICALIZED>  (1) 
1

>  <PUBCHEM_CACTVS_COMPLEXITY>  (1) 
287

>  <PUBCHEM_CACTVS_HBOND_ACCEPTOR>  (1) 
5

>  <PUBCHEM_CACTVS_HBOND_DONOR>  (1) 
2

>  <PUBCHEM_CACTVS_ROTATABLE_BOND>  (1) 
4

>  <PUBCHEM_CACTVS_SUBSKEYS>  (1) 
AAADccByOAAAAAAAAAAAAAAAAAAAAAAAAAAwAAAAAAAAAAABAAAAHgAQCAAADAyBmAAwyIBAAgCIAqTSSAKCAAAkAgAIiAFAZMgIIDqIlZGAYYBkkAAIycebybCeAAAAAAACAAAAAAAAAAQAAAAAAAAAAA==

>  <PUBCHEM_IUPAC_OPENEYE_NAME>  (1) 
4-(2-aminophenyl)-2,4-dioxo-butanoic acid

>  <PUBCHEM_IUPAC_CAS_NAME>  (1) 
4-(2-aminophenyl)-2,4-dioxobutanoic acid

>  <PUBCHEM_IUPAC_NAME_MARKUP>  (1) 
4-(2-aminophenyl)-2,4-dioxobutanoic acid

>  <PUBCHEM_IUPAC_NAME>  (1) 
4-(2-aminophenyl)-2,4-dioxobutanoic acid

>  <PUBCHEM_IUPAC_SYSTEMATIC_NAME>  (1) 
4-(2-aminophenyl)-2,4-bis(oxidanylidene)butanoic acid

>  <PUBCHEM_IUPAC_TRADITIONAL_NAME>  (1) 
4-(2-aminophenyl)-2,4-diketo-butyric acid

>  <PUBCHEM_IUPAC_INCHI>  (1) 
InChI=1S/C10H9NO4/c11-7-4-2-1-3-6(7)8(12)5-9(13)10(14)15/h1-4H,5,11H2,(H,14,15)

>  <PUBCHEM_IUPAC_INCHIKEY>  (1) 
CAOVWYZQMPNAFJ-UHFFFAOYSA-N

>  <PUBCHEM_XLOGP3_AA>  (1) 
1.1

>  <PUBCHEM_EXACT_MASS>  (1) 
207.053158

>  <PUBCHEM_MOLECULAR_FORMULA>  (1) 
C10H9NO4

>  <PUBCHEM_MOLECULAR_WEIGHT>  (1) 
207.18

>  <PUBCHEM_OPENEYE_CAN_SMILES>  (1) 
C1=CC=C(C(=C1)C(=O)CC(=O)C(=O)O)N

>  <PUBCHEM_OPENEYE_ISO_SMILES>  (1) 
C1=CC=C(C(=C1)C(=O)CC(=O)C(=O)O)N

>  <PUBCHEM_CACTVS_TPSA>  (1) 
97.5

>  <PUBCHEM_MONOISOTOPIC_WEIGHT>  (1) 
207.053158

>  <PUBCHEM_TOTAL_CHARGE>  (1) 
0

>  <PUBCHEM_HEAVY_ATOM_COUNT>  (1) 
15

>  <PUBCHEM_ATOM_DEF_STEREO_COUNT>  (1) 
0

>  <PUBCHEM_ATOM_UDEF_STEREO_COUNT>  (1) 
0

>  <PUBCHEM_BOND_DEF_STEREO_COUNT>  (1) 
0

>  <PUBCHEM_BOND_UDEF_STEREO_COUNT>  (1) 
0

>  <PUBCHEM_ISOTOPIC_ATOM_COUNT>  (1) 
0

>  <PUBCHEM_COMPONENT_COUNT>  (1) 
1

>  <PUBCHEM_CACTVS_TAUTO_COUNT>  (1) 
-1

>  <PUBCHEM_COORDINATE_TYPE>  (1) 
1
5
255

>  <PUBCHEM_BONDANNOTATIONS>  (1) 
10  12  8
11  13  8
12  13  8
6  10  8
6  9  8
9  11  8

$$$$
