474
     RDKit          2D

 26 28  0  0  1  0  0  0  0  0999 V2000
   -4.1404   -1.3139    0.0000 P   0  0  0  0  0  0  0  0  0  0  0  0
    0.1718    0.3786    0.0000 O   0  0  0  0  0  0  0  0  0  0  0  0
    1.6564    3.9649    0.0000 O   0  0  0  0  0  0  0  0  0  0  0  0
   -1.6042    3.8299    0.0000 O   0  0  0  0  0  0  0  0  0  0  0  0
   -2.7342   -0.7917    0.0000 O   0  0  0  0  0  0  0  0  0  0  0  0
   -5.5466   -1.8360    0.0000 O   0  0  0  0  0  0  0  0  0  0  0  0
   -3.6182   -2.7200    0.0000 O   0  0  0  0  0  0  0  0  0  0  0  0
   -4.6626    0.0923    0.0000 O   0  0  0  0  0  0  0  0  0  0  0  0
    2.7924    0.9057    0.0000 N   0  0  0  0  0  0  0  0  0  0  0  0
    5.2173    1.0061    0.0000 N   0  0  0  0  0  0  0  0  0  0  0  0
    2.6189   -1.8295    0.0000 N   0  0  0  0  0  0  0  0  0  0  0  0
    4.9208   -3.0343    0.0000 N   0  0  0  0  0  0  0  0  0  0  0  0
    7.1151   -1.6432    0.0000 N   0  0  0  0  0  0  0  0  0  0  0  0
   -6.7019   -0.8793    0.0000 N   0  0  0  0  0  0  0  0  0  0  0  0
    0.8257    2.7160    0.0000 C   0  0  0  0  0  0  0  0  0  0  0  0
   -0.6731    2.6539    0.0000 C   0  0  0  0  0  0  0  0  0  0  0  0
    1.3478    1.3098    0.0000 C   0  0  0  0  0  0  0  0  0  0  0  0
   -1.0772    1.2093    0.0000 C   0  0  0  0  0  0  0  0  0  0  0  0
   -2.4833    0.6872    0.0000 C   0  0  0  0  0  0  0  0  0  0  0  0
    3.3145   -0.5005    0.0000 C   0  0  0  0  0  0  0  0  0  0  0  0
    3.9684    1.8368    0.0000 C   0  0  0  0  0  0  0  0  0  0  0  0
    4.8132   -0.4384    0.0000 C   0  0  0  0  0  0  0  0  0  0  0  0
    5.6164   -1.7053    0.0000 C   0  0  0  0  0  0  0  0  0  0  0  0
    3.4220   -3.0964    0.0000 C   0  0  0  0  0  0  0  0  0  0  0  0
   -8.1081   -1.4015    0.0000 C   0  0  0  0  0  0  0  0  0  0  0  0
   -6.4510    0.5995    0.0000 C   0  0  0  0  0  0  0  0  0  0  0  0
  1  5  1  0
  1  6  1  0
  1  7  1  0
  1  8  2  0
  2 17  1  0
  2 18  1  0
  3 15  1  0
  4 16  1  0
  5 19  1  0
  6 14  1  0
  9 17  1  0
  9 20  1  0
  9 21  1  0
 10 21  2  0
 10 22  1  0
 11 20  1  0
 11 24  2  0
 12 23  2  0
 12 24  1  0
 13 23  1  0
 14 25  1  0
 14 26  1  0
 15 16  1  0
 15 17  1  0
 16 18  1  0
 18 19  1  0
 20 22  2  0
 22 23  1  0
M  END
>  <PUBCHEM_COMPOUND_CID>  (1) 
474

>  <PUBCHEM_COMPOUND_CANONICALIZED>  (1) 
1

>  <PUBCHEM_CACTVS_COMPLEXITY>  (1) 
544

>  <PUBCHEM_CACTVS_HBOND_ACCEPTOR>  (1) 
12

>  <PUBCHEM_CACTVS_HBOND_DONOR>  (1) 
4

>  <PUBCHEM_CACTVS_ROTATABLE_BOND>  (1) 
6

>  <PUBCHEM_CACTVS_SUBSKEYS>  (1) 
AAADceBzuAIAAAAAAAAAAAAAAAAAAWJAAAAsAAAAAAAAAFgB+AAAHgAUCCAACBzhlwYH8L9cFxCgQQZhZICAgC0REKABUCAoVBCDWAJAyEAeRAgPAALTACDwMAIAAAAAAAAAAAAAAAAAAAAAAAAAAAAAAA==

>  <PUBCHEM_IUPAC_OPENEYE_NAME>  (1) 
[5-(6-aminopurin-9-yl)-3,4-dihydroxy-tetrahydrofuran-2-yl]methyl dimethylamino hydrogen phosphate

>  <PUBCHEM_IUPAC_CAS_NAME>  (1) 
[5-(6-aminopurin-9-yl)-3,4-dihydroxy-2-oxolanyl]methyl dimethylamino hydrogen phosphate

>  <PUBCHEM_IUPAC_NAME_MARKUP>  (1) 
[5-(6-aminopurin-9-yl)-3,4-dihydroxyoxolan-2-yl]methyl dimethylamino hydrogen phosphate

>  <PUBCHEM_IUPAC_NAME>  (1) 
[5-(6-aminopurin-9-yl)-3,4-dihydroxyoxolan-2-yl]methyl dimethylamino hydrogen phosphate

>  <PUBCHEM_IUPAC_SYSTEMATIC_NAME>  (1) 
[5-(6-aminopurin-9-yl)-3,4-bis(oxidanyl)oxolan-2-yl]methyl dimethylamino hydrogen phosphate

>  <PUBCHEM_IUPAC_TRADITIONAL_NAME>  (1) 
(5-adenin-9-yl-3,4-dihydroxy-tetrahydrofuran-2-yl)methyl dimethylamino hydrogen phosphate

>  <PUBCHEM_IUPAC_INCHI>  (1) 
InChI=1S/C12H19N6O7P/c1-17(2)25-26(21,22)23-3-6-8(19)9(20)12(24-6)18-5-16-7-10(13)14-4-15-11(7)18/h4-6,8-9,12,19-20H,3H2,1-2H3,(H,21,22)(H2,13,14,15)

>  <PUBCHEM_IUPAC_INCHIKEY>  (1) 
ZHMVYQXJIQHKMY-UHFFFAOYSA-N

>  <PUBCHEM_XLOGP3>  (1) 
-5

>  <PUBCHEM_EXACT_MASS>  (1) 
390.105284

>  <PUBCHEM_MOLECULAR_FORMULA>  (1) 
C12H19N6O7P

>  <PUBCHEM_MOLECULAR_WEIGHT>  (1) 
390.29

>  <PUBCHEM_OPENEYE_CAN_SMILES>  (1) 
CN(C)OP(=O)(O)OCC1C(C(C(O1)N2C=NC3=C(N=CN=C32)N)O)O

>  <PUBCHEM_OPENEYE_ISO_SMILES>  (1) 
CN(C)OP(=O)(O)OCC1C(C(C(O1)N2C=NC3=C(N=CN=C32)N)O)O

>  <PUBCHEM_CACTVS_TPSA>  (1) 
178

>  <PUBCHEM_MONOISOTOPIC_WEIGHT>  (1) 
390.105284

>  <PUBCHEM_TOTAL_CHARGE>  (1) 
0

>  <PUBCHEM_HEAVY_ATOM_COUNT>  (1) 
26

>  <PUBCHEM_ATOM_DEF_STEREO_COUNT>  (1) 
0

>  <PUBCHEM_ATOM_UDEF_STEREO_COUNT>  (1) 
4

>  <PUBCHEM_BOND_DEF_STEREO_COUNT>  (1) 
0

>  <PUBCHEM_BOND_UDEF_STEREO_COUNT>  (1) 
0

>  <PUBCHEM_ISOTOPIC_ATOM_COUNT>  (1) 
0

>  <PUBCHEM_COMPONENT_COUNT>  (1) 
1

>  <PUBCHEM_CACTVS_TAUTO_COUNT>  (1) 
-1

>  <PUBCHEM_COORDINATE_TYPE>  (1) 
1
5
255

>  <PUBCHEM_BONDANNOTATIONS>  (1) 
10  21  8
10  22  8
11  20  8
11  24  8
12  23  8
12  24  8
18  19  3
20  22  8
22  23  8
15  3  3
16  4  3
17  9  3
9  20  8
9  21  8

$$$$
