475
     RDKit          2D

 15 15  0  0  1  0  0  0  0  0999 V2000
    2.9849   -0.1031    0.0000 P   0  0  0  0  0  0  0  0  0  0  0  0
    0.1380   -1.0493    0.0000 O   0  0  0  0  0  0  0  0  0  0  0  0
    1.8634    0.8931    0.0000 O   0  0  0  0  0  0  0  0  0  0  0  0
   -3.2263    1.9393    0.0000 O   0  0  0  0  0  0  0  0  0  0  0  0
   -3.8303   -0.9993    0.0000 O   0  0  0  0  0  0  0  0  0  0  0  0
   -0.3794    2.8855    0.0000 O   0  0  0  0  0  0  0  0  0  0  0  0
    1.9887   -1.2245    0.0000 O   0  0  0  0  0  0  0  0  0  0  0  0
    4.1063   -1.0993    0.0000 O   0  0  0  0  0  0  0  0  0  0  0  0
    3.9810    1.0184    0.0000 O   0  0  0  0  0  0  0  0  0  0  0  0
   -2.1049    0.9431    0.0000 C   0  0  0  0  0  0  0  0  0  0  0  0
   -2.4069   -0.5262    0.0000 C   0  0  0  0  0  0  0  0  0  0  0  0
   -0.6814    1.4162    0.0000 C   0  0  0  0  0  0  0  0  0  0  0  0
   -1.2855   -1.5224    0.0000 C   0  0  0  0  0  0  0  0  0  0  0  0
    0.4400    0.4200    0.0000 C   0  0  0  0  0  0  0  0  0  0  0  0
   -1.5875   -2.9916    0.0000 C   0  0  0  0  0  0  0  0  0  0  0  0
  1  3  1  0
  1  7  1  0
  1  8  1  0
  1  9  2  0
  2 13  1  0
  2 14  1  0
  3 14  1  0
  4 10  1  0
  5 11  1  0
  6 12  1  0
 10 11  1  0
 10 12  1  0
 11 13  1  0
 12 14  1  0
 13 15  1  0
M  END
>  <PUBCHEM_COMPOUND_CID>  (1) 
475

>  <PUBCHEM_COMPOUND_CANONICALIZED>  (1) 
1

>  <PUBCHEM_CACTVS_COMPLEXITY>  (1) 
264

>  <PUBCHEM_CACTVS_HBOND_ACCEPTOR>  (1) 
8

>  <PUBCHEM_CACTVS_HBOND_DONOR>  (1) 
5

>  <PUBCHEM_CACTVS_ROTATABLE_BOND>  (1) 
2

>  <PUBCHEM_CACTVS_SUBSKEYS>  (1) 
AAADccBgPAIAAAAAAAAAAAAAAAAAAAAAAAAkAAAAAAAAAAAAAAAAGgAACCAACBSwgAMCCAAABxAAQAAAAIAAAAAAAAAAAAAAAAAREAIAAAACQAAFAAAHAAHAYAQAAAAAAAAAAAAAAAAAAAAAAAAAAAAAAA==

>  <PUBCHEM_IUPAC_OPENEYE_NAME>  (1) 
(3,4,5-trihydroxy-6-methyl-tetrahydropyran-2-yl) dihydrogen phosphate

>  <PUBCHEM_IUPAC_CAS_NAME>  (1) 
(3,4,5-trihydroxy-6-methyl-2-oxanyl) dihydrogen phosphate

>  <PUBCHEM_IUPAC_NAME_MARKUP>  (1) 
(3,4,5-trihydroxy-6-methyloxan-2-yl) dihydrogen phosphate

>  <PUBCHEM_IUPAC_NAME>  (1) 
(3,4,5-trihydroxy-6-methyloxan-2-yl) dihydrogen phosphate

>  <PUBCHEM_IUPAC_SYSTEMATIC_NAME>  (1) 
[6-methyl-3,4,5-tris(oxidanyl)oxan-2-yl] dihydrogen phosphate

>  <PUBCHEM_IUPAC_TRADITIONAL_NAME>  (1) 
(3,4,5-trihydroxy-6-methyl-tetrahydropyran-2-yl) dihydrogen phosphate

>  <PUBCHEM_IUPAC_INCHI>  (1) 
InChI=1S/C6H13O8P/c1-2-3(7)4(8)5(9)6(13-2)14-15(10,11)12/h2-9H,1H3,(H2,10,11,12)

>  <PUBCHEM_IUPAC_INCHIKEY>  (1) 
PTVXQARCLQPGIR-UHFFFAOYSA-N

>  <PUBCHEM_XLOGP3_AA>  (1) 
-3.2

>  <PUBCHEM_EXACT_MASS>  (1) 
244.034804

>  <PUBCHEM_MOLECULAR_FORMULA>  (1) 
C6H13O8P

>  <PUBCHEM_MOLECULAR_WEIGHT>  (1) 
244.14

>  <PUBCHEM_OPENEYE_CAN_SMILES>  (1) 
CC1C(C(C(C(O1)OP(=O)(O)O)O)O)O

>  <PUBCHEM_OPENEYE_ISO_SMILES>  (1) 
CC1C(C(C(C(O1)OP(=O)(O)O)O)O)O

>  <PUBCHEM_CACTVS_TPSA>  (1) 
137

>  <PUBCHEM_MONOISOTOPIC_WEIGHT>  (1) 
244.034804

>  <PUBCHEM_TOTAL_CHARGE>  (1) 
0

>  <PUBCHEM_HEAVY_ATOM_COUNT>  (1) 
15

>  <PUBCHEM_ATOM_DEF_STEREO_COUNT>  (1) 
0

>  <PUBCHEM_ATOM_UDEF_STEREO_COUNT>  (1) 
5

>  <PUBCHEM_BOND_DEF_STEREO_COUNT>  (1) 
0

>  <PUBCHEM_BOND_UDEF_STEREO_COUNT>  (1) 
0

>  <PUBCHEM_ISOTOPIC_ATOM_COUNT>  (1) 
0

>  <PUBCHEM_COMPONENT_COUNT>  (1) 
1

>  <PUBCHEM_CACTVS_TAUTO_COUNT>  (1) 
-1

>  <PUBCHEM_COORDINATE_TYPE>  (1) 
1
5
255

>  <PUBCHEM_BONDANNOTATIONS>  (1) 
13  15  3
14  3  3
10  4  3
11  5  3
12  6  3

$$$$
