491
     RDKit          2D

  9  8  0  0  0  0  0  0  0  0999 V2000
   -1.2990    0.0833    0.0000 S   0  0  0  0  0  0  0  0  0  0  0  0
    1.2990    0.0833    0.0000 S   0  0  0  0  0  0  0  0  0  0  0  0
   -0.0000    0.8333    0.0000 S   0  0  0  0  0  0  0  0  0  0  0  0
   -2.0490    1.3824    0.0000 O   0  0  0  0  0  0  0  0  0  0  0  0
    2.0490    1.3824    0.0000 O   0  0  0  0  0  0  0  0  0  0  0  0
   -0.5490   -1.2157    0.0000 O   0  0  0  0  0  0  0  0  0  0  0  0
   -2.5981   -0.6667    0.0000 O   0  0  0  0  0  0  0  0  0  0  0  0
    0.5490   -1.2157    0.0000 O   0  0  0  0  0  0  0  0  0  0  0  0
    2.5981   -0.6667    0.0000 O   0  0  0  0  0  0  0  0  0  0  0  0
  1  3  1  0
  1  4  1  0
  1  6  2  0
  1  7  2  0
  2  3  1  0
  2  5  1  0
  2  8  2  0
  2  9  2  0
M  CHG  2   4  -1   5  -1
M  END
>  <PUBCHEM_COMPOUND_CID>  (1) 
491

>  <PUBCHEM_COMPOUND_CANONICALIZED>  (1) 
1

>  <PUBCHEM_CACTVS_COMPLEXITY>  (1) 
196

>  <PUBCHEM_CACTVS_HBOND_ACCEPTOR>  (1) 
7

>  <PUBCHEM_CACTVS_HBOND_DONOR>  (1) 
0

>  <PUBCHEM_CACTVS_ROTATABLE_BOND>  (1) 
0

>  <PUBCHEM_CACTVS_SUBSKEYS>  (1) 
AAADcQAAOABgAAAAAAAAAAAAAAAAAAAAAAAAAAAAAAAAAAAAAAAAAAAAAAAAAAAAAAAAAAAAAAAAAAAAADAAAAAAAAAAAAAAAAAAAAAAAAAAAAAAAAAAAAAAAAAAAAAAAAAAAAAAAAAAAAAAAAAAAAAAAA==

>  <PUBCHEM_IUPAC_INCHI>  (1) 
InChI=1S/H2O6S3/c1-8(2,3)7-9(4,5)6/h(H,1,2,3)(H,4,5,6)/p-2

>  <PUBCHEM_IUPAC_INCHIKEY>  (1) 
KRURGYOKPVLRHQ-UHFFFAOYSA-L

>  <PUBCHEM_XLOGP3_AA>  (1) 
-1.5

>  <PUBCHEM_EXACT_MASS>  (1) 
191.885701

>  <PUBCHEM_MOLECULAR_FORMULA>  (1) 
O6S3-2

>  <PUBCHEM_MOLECULAR_WEIGHT>  (1) 
192.2

>  <PUBCHEM_OPENEYE_CAN_SMILES>  (1) 
[O-]S(=O)(=O)SS(=O)(=O)[O-]

>  <PUBCHEM_OPENEYE_ISO_SMILES>  (1) 
[O-]S(=O)(=O)SS(=O)(=O)[O-]

>  <PUBCHEM_CACTVS_TPSA>  (1) 
157

>  <PUBCHEM_MONOISOTOPIC_WEIGHT>  (1) 
191.885701

>  <PUBCHEM_TOTAL_CHARGE>  (1) 
-2

>  <PUBCHEM_HEAVY_ATOM_COUNT>  (1) 
9

>  <PUBCHEM_ATOM_DEF_STEREO_COUNT>  (1) 
0

>  <PUBCHEM_ATOM_UDEF_STEREO_COUNT>  (1) 
0

>  <PUBCHEM_BOND_DEF_STEREO_COUNT>  (1) 
0

>  <PUBCHEM_BOND_UDEF_STEREO_COUNT>  (1) 
0

>  <PUBCHEM_ISOTOPIC_ATOM_COUNT>  (1) 
0

>  <PUBCHEM_COMPONENT_COUNT>  (1) 
1

>  <PUBCHEM_CACTVS_TAUTO_COUNT>  (1) 
-1

>  <PUBCHEM_COORDINATE_TYPE>  (1) 
1
5
255

$$$$
