493
     RDKit          2D

 47 50  0  0  1  0  0  0  0  0999 V2000
    2.5344    4.4605    0.0000 P   0  0  0  0  0  0  0  0  0  0  0  0
    0.1447    5.4801    0.0000 P   0  0  0  0  0  0  0  0  0  0  0  0
    5.2465    0.7050    0.0000 O   0  0  0  0  0  0  0  0  0  0  0  0
   -4.1519    2.4298    0.0000 O   0  0  0  0  0  0  0  0  0  0  0  0
    1.8863   -1.2377    0.0000 O   0  0  0  0  0  0  0  0  0  0  0  0
    4.5560   -3.1145    0.0000 O   0  0  0  0  0  0  0  0  0  0  0  0
    3.4349    3.2609    0.0000 O   0  0  0  0  0  0  0  0  0  0  0  0
   -4.1542    6.3112    0.0000 O   0  0  0  0  0  0  0  0  0  0  0  0
   -7.1144    4.9376    0.0000 O   0  0  0  0  0  0  0  0  0  0  0  0
   -1.3444    5.3001    0.0000 O   0  0  0  0  0  0  0  0  0  0  0  0
    1.6339    5.6602    0.0000 O   0  0  0  0  0  0  0  0  0  0  0  0
    3.7340    5.3610    0.0000 O   0  0  0  0  0  0  0  0  0  0  0  0
    0.3248    3.9910    0.0000 O   0  0  0  0  0  0  0  0  0  0  0  0
    1.3348    3.5600    0.0000 O   0  0  0  0  0  0  0  0  0  0  0  0
   -0.0353    6.9693    0.0000 O   0  0  0  0  0  0  0  0  0  0  0  0
   -9.7796   -8.2348    0.0000 O   0  0  0  0  0  0  0  0  0  0  0  0
   -7.2470   -7.6550    0.0000 O   0  0  0  0  0  0  0  0  0  0  0  0
    7.1659   -1.1554    0.0000 N   0  0  0  0  0  0  0  0  0  0  0  0
   -6.7227    1.6978    0.0000 N   0  0  0  0  0  0  0  0  0  0  0  0
    9.5927   -1.1175    0.0000 N   0  0  0  0  0  0  0  0  0  0  0  0
    6.9220   -3.8852    0.0000 N   0  0  0  0  0  0  0  0  0  0  0  0
   -7.4869   -0.7853    0.0000 N   0  0  0  0  0  0  0  0  0  0  0  0
    9.1919   -5.1489    0.0000 N   0  0  0  0  0  0  0  0  0  0  0  0
   -4.9544   -0.2056    0.0000 N   0  0  0  0  0  0  0  0  0  0  0  0
   11.4214   -3.8150    0.0000 N   0  0  0  0  0  0  0  0  0  0  0  0
  -10.4490   -5.3104    0.0000 N   0  0  0  0  0  0  0  0  0  0  0  0
    3.3055   -0.7520    0.0000 C   0  0  0  0  0  0  0  0  0  0  0  0
    4.5326   -1.6147    0.0000 C   0  0  0  0  0  0  0  0  0  0  0  0
    3.7467    0.6816    0.0000 C   0  0  0  0  0  0  0  0  0  0  0  0
    5.7323   -0.7142    0.0000 C   0  0  0  0  0  0  0  0  0  0  0  0
   -4.4432    4.8393    0.0000 C   0  0  0  0  0  0  0  0  0  0  0  0
   -3.4222    3.7404    0.0000 C   0  0  0  0  0  0  0  0  0  0  0  0
   -5.8038    4.2079    0.0000 C   0  0  0  0  0  0  0  0  0  0  0  0
   -5.6238    2.7188    0.0000 C   0  0  0  0  0  0  0  0  0  0  0  0
    2.8462    1.8812    0.0000 C   0  0  0  0  0  0  0  0  0  0  0  0
   -1.9331    3.9204    0.0000 C   0  0  0  0  0  0  0  0  0  0  0  0
    7.6516   -2.5746    0.0000 C   0  0  0  0  0  0  0  0  0  0  0  0
    8.3655   -0.2549    0.0000 C   0  0  0  0  0  0  0  0  0  0  0  0
    9.1514   -2.5512    0.0000 C   0  0  0  0  0  0  0  0  0  0  0  0
   -6.3880    0.2356    0.0000 C   0  0  0  0  0  0  0  0  0  0  0  0
    9.9216   -3.8384    0.0000 C   0  0  0  0  0  0  0  0  0  0  0  0
    7.6921   -5.1723    0.0000 C   0  0  0  0  0  0  0  0  0  0  0  0
   -7.1522   -2.2475    0.0000 C   0  0  0  0  0  0  0  0  0  0  0  0
   -8.2512   -3.2685    0.0000 C   0  0  0  0  0  0  0  0  0  0  0  0
   -7.9164   -4.7307    0.0000 C   0  0  0  0  0  0  0  0  0  0  0  0
   -9.0154   -5.7516    0.0000 C   0  0  0  0  0  0  0  0  0  0  0  0
   -8.6807   -7.2138    0.0000 C   0  0  0  0  0  0  0  0  0  0  0  0
  1  7  1  0
  1 11  1  0
  1 12  1  0
  1 14  2  0
  2 10  1  0
  2 11  1  0
  2 13  1  0
  2 15  2  0
  3 29  1  0
  3 30  1  0
  4 32  1  0
  4 34  1  0
  5 27  1  0
  6 28  1  0
  7 35  1  0
  8 31  1  0
  9 33  1  0
 10 36  1  0
 16 47  1  0
 17 47  2  0
 18 30  1  0
 18 37  1  0
 18 38  1  0
 19 34  1  0
 19 40  1  0
 20 38  2  0
 20 39  1  0
 21 37  1  0
 21 42  2  0
 22 40  2  0
 22 43  1  0
 23 41  2  0
 23 42  1  0
 24 40  1  0
 25 41  1  0
 26 46  1  0
 27 28  1  0
 27 29  1  0
 28 30  1  0
 29 35  1  0
 31 32  1  0
 31 33  1  0
 32 36  1  0
 33 34  1  0
 37 39  2  0
 39 41  1  0
 43 44  1  0
 44 45  1  0
 45 46  1  0
 46 47  1  0
M  END
>  <PUBCHEM_COMPOUND_CID>  (1) 
493

>  <PUBCHEM_COMPOUND_CANONICALIZED>  (1) 
1

>  <PUBCHEM_CACTVS_COMPLEXITY>  (1) 
1210

>  <PUBCHEM_CACTVS_HBOND_ACCEPTOR>  (1) 
21

>  <PUBCHEM_CACTVS_HBOND_DONOR>  (1) 
11

>  <PUBCHEM_CACTVS_ROTATABLE_BOND>  (1) 
16

>  <PUBCHEM_CACTVS_SUBSKEYS>  (1) 
AAADcfB7/AMAAAAAAAAAAAAAAAAAAWJEgAAsAAAAAAAAAFgB+AAAHgAQCCAACDzhlwYF+L/MFxCoQQbxbICAgC0REKABUKGoVBGDWBJAyEAeRAgPEALTACD4MQIAAAAAAAAAAAAAAAAAAAAAAAAAAAAAAA==

>  <PUBCHEM_IUPAC_OPENEYE_NAME>  (1) 
2-amino-5-[[amino-[[5-[[[[5-(6-aminopurin-9-yl)-3,4-dihydroxy-tetrahydrofuran-2-yl]methoxy-hydroxy-phosphoryl]oxy-hydroxy-phosphoryl]oxymethyl]-3,4-dihydroxy-tetrahydrofuran-2-yl]amino]methylene]amino]pentanoic acid

>  <PUBCHEM_IUPAC_CAS_NAME>  (1) 
2-amino-5-[[amino-[[5-[[[[5-(6-aminopurin-9-yl)-3,4-dihydroxy-2-oxolanyl]methoxy-hydroxyphosphoryl]oxy-hydroxyphosphoryl]oxymethyl]-3,4-dihydroxy-2-oxolanyl]amino]methylidene]amino]pentanoic acid

>  <PUBCHEM_IUPAC_NAME_MARKUP>  (1) 
2-amino-5-[[amino-[[5-[[[[5-(6-aminopurin-9-yl)-3,4-dihydroxyoxolan-2-yl]methoxy-hydroxyphosphoryl]oxy-hydroxyphosphoryl]oxymethyl]-3,4-dihydroxyoxolan-2-yl]amino]methylidene]amino]pentanoic acid

>  <PUBCHEM_IUPAC_NAME>  (1) 
2-amino-5-[[amino-[[5-[[[[5-(6-aminopurin-9-yl)-3,4-dihydroxyoxolan-2-yl]methoxy-hydroxyphosphoryl]oxy-hydroxyphosphoryl]oxymethyl]-3,4-dihydroxyoxolan-2-yl]amino]methylidene]amino]pentanoic acid

>  <PUBCHEM_IUPAC_SYSTEMATIC_NAME>  (1) 
5-[[[[5-[[[[5-(6-aminopurin-9-yl)-3,4-bis(oxidanyl)oxolan-2-yl]methoxy-oxidanyl-phosphoryl]oxy-oxidanyl-phosphoryl]oxymethyl]-3,4-bis(oxidanyl)oxolan-2-yl]amino]-azanyl-methylidene]amino]-2-azanyl-pentanoic acid

>  <PUBCHEM_IUPAC_TRADITIONAL_NAME>  (1) 
5-[[[[5-[[[(5-adenin-9-yl-3,4-dihydroxy-tetrahydrofuran-2-yl)methoxy-hydroxy-phosphoryl]oxy-hydroxy-phosphoryl]oxymethyl]-3,4-dihydroxy-tetrahydrofuran-2-yl]amino]-amino-methylene]amino]-2-amino-valeric acid

>  <PUBCHEM_IUPAC_INCHI>  (1) 
InChI=1S/C21H35N9O15P2/c22-8(20(35)36)2-1-3-25-21(24)29-18-14(33)12(31)9(43-18)4-41-46(37,38)45-47(39,40)42-5-10-13(32)15(34)19(44-10)30-7-28-11-16(23)26-6-27-17(11)30/h6-10,12-15,18-19,31-34H,1-5,22H2,(H,35,36)(H,37,38)(H,39,40)(H2,23,26,27)(H3,24,25,29)

>  <PUBCHEM_IUPAC_INCHIKEY>  (1) 
IWVSYNGKNZFSSA-UHFFFAOYSA-N

>  <PUBCHEM_XLOGP3>  (1) 
-9.5

>  <PUBCHEM_EXACT_MASS>  (1) 
715.172785

>  <PUBCHEM_MOLECULAR_FORMULA>  (1) 
C21H35N9O15P2

>  <PUBCHEM_MOLECULAR_WEIGHT>  (1) 
715.5

>  <PUBCHEM_OPENEYE_CAN_SMILES>  (1) 
C1=NC(=C2C(=N1)N(C=N2)C3C(C(C(O3)COP(=O)(O)OP(=O)(O)OCC4C(C(C(O4)NC(=NCCCC(C(=O)O)N)N)O)O)O)O)N

>  <PUBCHEM_OPENEYE_ISO_SMILES>  (1) 
C1=NC(=C2C(=N1)N(C=N2)C3C(C(C(O3)COP(=O)(O)OP(=O)(O)OCC4C(C(C(O4)NC(=NCCCC(C(=O)O)N)N)O)O)O)O)N

>  <PUBCHEM_CACTVS_TPSA>  (1) 
385

>  <PUBCHEM_MONOISOTOPIC_WEIGHT>  (1) 
715.172785

>  <PUBCHEM_TOTAL_CHARGE>  (1) 
0

>  <PUBCHEM_HEAVY_ATOM_COUNT>  (1) 
47

>  <PUBCHEM_ATOM_DEF_STEREO_COUNT>  (1) 
0

>  <PUBCHEM_ATOM_UDEF_STEREO_COUNT>  (1) 
9

>  <PUBCHEM_BOND_DEF_STEREO_COUNT>  (1) 
0

>  <PUBCHEM_BOND_UDEF_STEREO_COUNT>  (1) 
0

>  <PUBCHEM_ISOTOPIC_ATOM_COUNT>  (1) 
0

>  <PUBCHEM_COMPONENT_COUNT>  (1) 
1

>  <PUBCHEM_CACTVS_TAUTO_COUNT>  (1) 
-1

>  <PUBCHEM_COORDINATE_TYPE>  (1) 
1
5
255

>  <PUBCHEM_BONDANNOTATIONS>  (1) 
30  18  3
18  37  8
18  38  8
34  19  3
20  38  8
20  39  8
21  37  8
21  42  8
23  41  8
23  42  8
46  26  3
29  35  3
32  36  3
37  39  8
39  41  8
27  5  3
28  6  3
31  8  3
33  9  3

$$$$
