497
     RDKit          2D

 16 17  0  0  1  0  0  0  0  0999 V2000
   -1.0192   -1.9717    0.0000 S   0  0  0  0  0  0  0  0  0  0  0  0
   -5.6031    2.0779    0.0000 O   0  0  0  0  0  0  0  0  0  0  0  0
    5.5972    1.8328    0.0000 O   0  0  0  0  0  0  0  0  0  0  0  0
   -3.0147    1.4105    0.0000 N   0  0  0  0  0  0  0  0  0  0  0  0
   -4.6216   -0.4084    0.0000 N   0  0  0  0  0  0  0  0  0  0  0  0
    6.9174   -0.4048    0.0000 N   0  0  0  0  0  0  0  0  0  0  0  0
   -2.2525    0.1186    0.0000 C   0  0  0  0  0  0  0  0  0  0  0  0
   -3.2456   -1.0055    0.0000 C   0  0  0  0  0  0  0  0  0  0  0  0
   -0.8765   -0.4785    0.0000 C   0  0  0  0  0  0  0  0  0  0  0  0
   -2.4834   -2.2974    0.0000 C   0  0  0  0  0  0  0  0  0  0  0  0
    0.4154    0.2838    0.0000 C   0  0  0  0  0  0  0  0  0  0  0  0
    1.7215   -0.4539    0.0000 C   0  0  0  0  0  0  0  0  0  0  0  0
   -4.4790    1.0848    0.0000 C   0  0  0  0  0  0  0  0  0  0  0  0
    3.0134    0.3083    0.0000 C   0  0  0  0  0  0  0  0  0  0  0  0
    4.3194   -0.4294    0.0000 C   0  0  0  0  0  0  0  0  0  0  0  0
    5.6113    0.3328    0.0000 C   0  0  0  0  0  0  0  0  0  0  0  0
  1  9  1  0
  1 10  1  0
  2 13  2  0
  3 16  2  0
  4  7  1  0
  4 13  1  0
  5  8  1  0
  5 13  1  0
  6 16  1  0
  7  8  1  0
  7  9  1  0
  8 10  1  0
  9 11  1  0
 11 12  1  0
 12 14  1  0
 14 15  1  0
 15 16  1  0
M  END
>  <PUBCHEM_COMPOUND_CID>  (1) 
497

>  <PUBCHEM_COMPOUND_CANONICALIZED>  (1) 
1

>  <PUBCHEM_CACTVS_COMPLEXITY>  (1) 
298

>  <PUBCHEM_CACTVS_HBOND_ACCEPTOR>  (1) 
3

>  <PUBCHEM_CACTVS_HBOND_DONOR>  (1) 
3

>  <PUBCHEM_CACTVS_ROTATABLE_BOND>  (1) 
5

>  <PUBCHEM_CACTVS_SUBSKEYS>  (1) 
AAADceBzMABAAAAAAAAAAAAAAAAAAWJAAAAAAAAAAAAWAAAAAAAAHgQQAAAACCjFwASBAALAAAgIAAEQEAAAAAAAABAAAIEIAACAQBIggAAUAAAIFgIgAAEYiICAAAAAAAAAAAAAAAAAAAAAAAAAAAAAAA==

>  <PUBCHEM_IUPAC_OPENEYE_NAME>  (1) 
5-(2-oxo-1,3,3a,4,6,6a-hexahydrothieno[3,4-d]imidazol-4-yl)pentanamide

>  <PUBCHEM_IUPAC_CAS_NAME>  (1) 
5-(2-oxo-1,3,3a,4,6,6a-hexahydrothieno[3,4-d]imidazol-4-yl)pentanamide

>  <PUBCHEM_IUPAC_NAME_MARKUP>  (1) 
5-(2-oxo-1,3,3<I>a</I>,4,6,6<I>a</I>-hexahydrothieno[3,4-d]imidazol-4-yl)pentanamide

>  <PUBCHEM_IUPAC_NAME>  (1) 
5-(2-oxo-1,3,3a,4,6,6a-hexahydrothieno[3,4-d]imidazol-4-yl)pentanamide

>  <PUBCHEM_IUPAC_SYSTEMATIC_NAME>  (1) 
5-(2-oxidanylidene-1,3,3a,4,6,6a-hexahydrothieno[3,4-d]imidazol-4-yl)pentanamide

>  <PUBCHEM_IUPAC_TRADITIONAL_NAME>  (1) 
5-(2-keto-1,3,3a,4,6,6a-hexahydrothien[3,4-d]imidazol-4-yl)valeramide

>  <PUBCHEM_IUPAC_INCHI>  (1) 
InChI=1S/C10H17N3O2S/c11-8(14)4-2-1-3-7-9-6(5-16-7)12-10(15)13-9/h6-7,9H,1-5H2,(H2,11,14)(H2,12,13,15)

>  <PUBCHEM_IUPAC_INCHIKEY>  (1) 
XFLVBMBRLSCJAI-UHFFFAOYSA-N

>  <PUBCHEM_XLOGP3_AA>  (1) 
-0.3

>  <PUBCHEM_EXACT_MASS>  (1) 
243.104148

>  <PUBCHEM_MOLECULAR_FORMULA>  (1) 
C10H17N3O2S

>  <PUBCHEM_MOLECULAR_WEIGHT>  (1) 
243.33

>  <PUBCHEM_OPENEYE_CAN_SMILES>  (1) 
C1C2C(C(S1)CCCCC(=O)N)NC(=O)N2

>  <PUBCHEM_OPENEYE_ISO_SMILES>  (1) 
C1C2C(C(S1)CCCCC(=O)N)NC(=O)N2

>  <PUBCHEM_CACTVS_TPSA>  (1) 
110

>  <PUBCHEM_MONOISOTOPIC_WEIGHT>  (1) 
243.104148

>  <PUBCHEM_TOTAL_CHARGE>  (1) 
0

>  <PUBCHEM_HEAVY_ATOM_COUNT>  (1) 
16

>  <PUBCHEM_ATOM_DEF_STEREO_COUNT>  (1) 
0

>  <PUBCHEM_ATOM_UDEF_STEREO_COUNT>  (1) 
3

>  <PUBCHEM_BOND_DEF_STEREO_COUNT>  (1) 
0

>  <PUBCHEM_BOND_UDEF_STEREO_COUNT>  (1) 
0

>  <PUBCHEM_ISOTOPIC_ATOM_COUNT>  (1) 
0

>  <PUBCHEM_COMPONENT_COUNT>  (1) 
1

>  <PUBCHEM_CACTVS_TAUTO_COUNT>  (1) 
-1

>  <PUBCHEM_COORDINATE_TYPE>  (1) 
1
5
255

>  <PUBCHEM_BONDANNOTATIONS>  (1) 
7  4  3
8  10  3
9  11  3

$$$$
