504
     RDKit          2D

  6  6  0  0  0  0  0  0  0  0999 V2000
    2.3133    0.0000    0.0000 O   0  0  0  0  0  0  0  0  0  0  0  0
   -0.0684   -1.2135    0.0000 N   0  0  0  0  0  0  0  0  0  0  0  0
   -1.4949    0.7500    0.0000 N   0  0  0  0  0  0  0  0  0  0  0  0
   -0.0684    1.2135    0.0000 C   0  0  0  0  0  0  0  0  0  0  0  0
    0.8133   -0.0000    0.0000 C   0  0  0  0  0  0  0  0  0  0  0  0
   -1.4949   -0.7500    0.0000 C   0  0  0  0  0  0  0  0  0  0  0  0
  1  5  2  0
  2  5  1  0
  2  6  1  0
  3  4  1  0
  3  6  2  0
  4  5  1  0
M  END
>  <PUBCHEM_COMPOUND_CID>  (1) 
504

>  <PUBCHEM_COMPOUND_CANONICALIZED>  (1) 
1

>  <PUBCHEM_CACTVS_COMPLEXITY>  (1) 
97

>  <PUBCHEM_CACTVS_HBOND_ACCEPTOR>  (1) 
2

>  <PUBCHEM_CACTVS_HBOND_DONOR>  (1) 
1

>  <PUBCHEM_CACTVS_ROTATABLE_BOND>  (1) 
0

>  <PUBCHEM_CACTVS_SUBSKEYS>  (1) 
AAADcYBDIAAAAAAAAAAAAAAAAAAAAQAAAAAAAAAAAAAAAAAAAAAAHgAQAAAAAADBgAQBAALAAAAoAAERNAAAAAEAAAABAICIAAAAQAAACAAQAAAAEgAAAAAAAAAAAAAAAAAAAAAAAAAAAAAAAAAAAAAAAA==

>  <PUBCHEM_IUPAC_OPENEYE_NAME>  (1) 
1,4-dihydroimidazol-5-one

>  <PUBCHEM_IUPAC_CAS_NAME>  (1) 
1,4-dihydroimidazol-5-one

>  <PUBCHEM_IUPAC_NAME_MARKUP>  (1) 
1,4-dihydroimidazol-5-one

>  <PUBCHEM_IUPAC_NAME>  (1) 
1,4-dihydroimidazol-5-one

>  <PUBCHEM_IUPAC_SYSTEMATIC_NAME>  (1) 
1,4-dihydroimidazol-5-one

>  <PUBCHEM_IUPAC_TRADITIONAL_NAME>  (1) 
2-imidazolin-4-one

>  <PUBCHEM_IUPAC_INCHI>  (1) 
InChI=1S/C3H4N2O/c6-3-1-4-2-5-3/h2H,1H2,(H,4,5,6)

>  <PUBCHEM_IUPAC_INCHIKEY>  (1) 
CAAMSDWKXXPUJR-UHFFFAOYSA-N

>  <PUBCHEM_XLOGP3_AA>  (1) 
-0.8

>  <PUBCHEM_EXACT_MASS>  (1) 
84.032363

>  <PUBCHEM_MOLECULAR_FORMULA>  (1) 
C3H4N2O

>  <PUBCHEM_MOLECULAR_WEIGHT>  (1) 
84.08

>  <PUBCHEM_OPENEYE_CAN_SMILES>  (1) 
C1C(=O)NC=N1

>  <PUBCHEM_OPENEYE_ISO_SMILES>  (1) 
C1C(=O)NC=N1

>  <PUBCHEM_CACTVS_TPSA>  (1) 
41.5

>  <PUBCHEM_MONOISOTOPIC_WEIGHT>  (1) 
84.032363

>  <PUBCHEM_TOTAL_CHARGE>  (1) 
0

>  <PUBCHEM_HEAVY_ATOM_COUNT>  (1) 
6

>  <PUBCHEM_ATOM_DEF_STEREO_COUNT>  (1) 
0

>  <PUBCHEM_ATOM_UDEF_STEREO_COUNT>  (1) 
0

>  <PUBCHEM_BOND_DEF_STEREO_COUNT>  (1) 
0

>  <PUBCHEM_BOND_UDEF_STEREO_COUNT>  (1) 
0

>  <PUBCHEM_ISOTOPIC_ATOM_COUNT>  (1) 
0

>  <PUBCHEM_COMPONENT_COUNT>  (1) 
1

>  <PUBCHEM_CACTVS_TAUTO_COUNT>  (1) 
-1

>  <PUBCHEM_COORDINATE_TYPE>  (1) 
1
5
255

$$$$
