505
     RDKit          2D

 23 24  0  0  1  0  0  0  0  0999 V2000
   -6.0493    0.7308    0.0000 P   0  0  0  0  0  0  0  0  0  0  0  0
   -1.4170    0.7703    0.0000 O   0  0  0  0  0  0  0  0  0  0  0  0
   -1.7764   -3.0945    0.0000 O   0  0  0  0  0  0  0  0  0  0  0  0
    1.2989   -2.0026    0.0000 O   0  0  0  0  0  0  0  0  0  0  0  0
   -4.5499    0.7713    0.0000 O   0  0  0  0  0  0  0  0  0  0  0  0
   -6.0089   -0.7687    0.0000 O   0  0  0  0  0  0  0  0  0  0  0  0
   -7.5488    0.6903    0.0000 O   0  0  0  0  0  0  0  0  0  0  0  0
   -6.0898    2.2302    0.0000 O   0  0  0  0  0  0  0  0  0  0  0  0
    6.3620    1.9419    0.0000 O   0  0  0  0  0  0  0  0  0  0  0  0
    4.3774   -2.8603    0.0000 O   0  0  0  0  0  0  0  0  0  0  0  0
    1.2108    1.2595    0.0000 N   0  0  0  0  0  0  0  0  0  0  0  0
    2.7941   -0.8004    0.0000 N   0  0  0  0  0  0  0  0  0  0  0  0
    5.3697   -0.4592    0.0000 N   0  0  0  0  0  0  0  0  0  0  0  0
    3.5894    3.0877    0.0000 N   0  0  0  0  0  0  0  0  0  0  0  0
   -1.3515   -1.6559    0.0000 C   0  0  0  0  0  0  0  0  0  0  0  0
    0.0620   -1.1540    0.0000 C   0  0  0  0  0  0  0  0  0  0  0  0
   -2.2656   -0.4666    0.0000 C   0  0  0  0  0  0  0  0  0  0  0  0
    0.0215    0.3454    0.0000 C   0  0  0  0  0  0  0  0  0  0  0  0
   -3.7651   -0.5071    0.0000 C   0  0  0  0  0  0  0  0  0  0  0  0
    2.5971    0.6866    0.0000 C   0  0  0  0  0  0  0  0  0  0  0  0
    3.7864    1.6007    0.0000 C   0  0  0  0  0  0  0  0  0  0  0  0
    5.1727    1.0278    0.0000 C   0  0  0  0  0  0  0  0  0  0  0  0
    4.1804   -1.3733    0.0000 C   0  0  0  0  0  0  0  0  0  0  0  0
  1  5  1  0
  1  6  1  0
  1  7  1  0
  1  8  2  0
  2 17  1  0
  2 18  1  0
  3 15  1  0
  4 16  1  0
  5 19  1  0
  9 22  2  0
 10 23  2  0
 11 18  1  0
 11 20  1  0
 12 20  1  0
 12 23  1  0
 13 22  1  0
 13 23  1  0
 14 21  1  0
 15 16  1  0
 15 17  1  0
 16 18  1  0
 17 19  1  0
 20 21  2  0
 21 22  1  0
M  END
>  <PUBCHEM_COMPOUND_CID>  (1) 
505

>  <PUBCHEM_COMPOUND_CANONICALIZED>  (1) 
1

>  <PUBCHEM_CACTVS_COMPLEXITY>  (1) 
590

>  <PUBCHEM_CACTVS_HBOND_ACCEPTOR>  (1) 
11

>  <PUBCHEM_CACTVS_HBOND_DONOR>  (1) 
8

>  <PUBCHEM_CACTVS_ROTATABLE_BOND>  (1) 
5

>  <PUBCHEM_CACTVS_SUBSKEYS>  (1) 
AAADccBzvAIAAAAAAAAAAAAAAAAAASAAAAAgAAAAAAAAAAAAAAAAHgAQCCAACBzhgAYBAALABxCIQAVQUICAAAAAAAAAAICIAEGDUAIAgAAeQAAPFSITAEDwMAIAAAAAAAAAAAAAAAAAAAAAAAAAAAAAAA==

>  <PUBCHEM_IUPAC_OPENEYE_NAME>  (1) 
[5-[(5-amino-2,4-dioxo-1H-pyrimidin-6-yl)amino]-3,4-dihydroxy-tetrahydrofuran-2-yl]methyl dihydrogen phosphate

>  <PUBCHEM_IUPAC_CAS_NAME>  (1) 
[5-[(5-amino-2,4-dioxo-1H-pyrimidin-6-yl)amino]-3,4-dihydroxy-2-oxolanyl]methyl dihydrogen phosphate

>  <PUBCHEM_IUPAC_NAME_MARKUP>  (1) 
[5-[(5-amino-2,4-dioxo-1<I>H</I>-pyrimidin-6-yl)amino]-3,4-dihydroxyoxolan-2-yl]methyl dihydrogen phosphate

>  <PUBCHEM_IUPAC_NAME>  (1) 
[5-[(5-amino-2,4-dioxo-1H-pyrimidin-6-yl)amino]-3,4-dihydroxyoxolan-2-yl]methyl dihydrogen phosphate

>  <PUBCHEM_IUPAC_SYSTEMATIC_NAME>  (1) 
[5-[[5-azanyl-2,4-bis(oxidanylidene)-1H-pyrimidin-6-yl]amino]-3,4-bis(oxidanyl)oxolan-2-yl]methyl dihydrogen phosphate

>  <PUBCHEM_IUPAC_TRADITIONAL_NAME>  (1) 
[5-[(5-amino-2,4-diketo-1H-pyrimidin-6-yl)amino]-3,4-dihydroxy-tetrahydrofuran-2-yl]methyl dihydrogen phosphate

>  <PUBCHEM_IUPAC_INCHI>  (1) 
InChI=1S/C9H15N4O9P/c10-3-6(12-9(17)13-7(3)16)11-8-5(15)4(14)2(22-8)1-21-23(18,19)20/h2,4-5,8,14-15H,1,10H2,(H2,18,19,20)(H3,11,12,13,16,17)

>  <PUBCHEM_IUPAC_INCHIKEY>  (1) 
LZEXYCAGPMYXLX-UHFFFAOYSA-N

>  <PUBCHEM_XLOGP3_AA>  (1) 
-4.4

>  <PUBCHEM_EXACT_MASS>  (1) 
354.057665

>  <PUBCHEM_MOLECULAR_FORMULA>  (1) 
C9H15N4O9P

>  <PUBCHEM_MOLECULAR_WEIGHT>  (1) 
354.21

>  <PUBCHEM_OPENEYE_CAN_SMILES>  (1) 
C(C1C(C(C(O1)NC2=C(C(=O)NC(=O)N2)N)O)O)OP(=O)(O)O

>  <PUBCHEM_OPENEYE_ISO_SMILES>  (1) 
C(C1C(C(C(O1)NC2=C(C(=O)NC(=O)N2)N)O)O)OP(=O)(O)O

>  <PUBCHEM_CACTVS_TPSA>  (1) 
213

>  <PUBCHEM_MONOISOTOPIC_WEIGHT>  (1) 
354.057665

>  <PUBCHEM_TOTAL_CHARGE>  (1) 
0

>  <PUBCHEM_HEAVY_ATOM_COUNT>  (1) 
23

>  <PUBCHEM_ATOM_DEF_STEREO_COUNT>  (1) 
0

>  <PUBCHEM_ATOM_UDEF_STEREO_COUNT>  (1) 
4

>  <PUBCHEM_BOND_DEF_STEREO_COUNT>  (1) 
0

>  <PUBCHEM_BOND_UDEF_STEREO_COUNT>  (1) 
0

>  <PUBCHEM_ISOTOPIC_ATOM_COUNT>  (1) 
0

>  <PUBCHEM_COMPONENT_COUNT>  (1) 
1

>  <PUBCHEM_CACTVS_TAUTO_COUNT>  (1) 
-1

>  <PUBCHEM_COORDINATE_TYPE>  (1) 
1
5
255

>  <PUBCHEM_BONDANNOTATIONS>  (1) 
18  11  3
12  20  8
12  23  8
13  22  8
13  23  8
17  19  3
20  21  8
21  22  8
15  3  3
16  4  3

$$$$
