51
     RDKit          2D

 10  9  0  0  0  0  0  0  0  0999 V2000
   -3.9947   -0.7313    0.0000 O   0  0  0  0  0  0  0  0  0  0  0  0
    1.2717   -1.9622    0.0000 O   0  0  0  0  0  0  0  0  0  0  0  0
   -2.8131    1.5825    0.0000 O   0  0  0  0  0  0  0  0  0  0  0  0
    3.7892   -0.3306    0.0000 O   0  0  0  0  0  0  0  0  0  0  0  0
    2.3762    1.8496    0.0000 O   0  0  0  0  0  0  0  0  0  0  0  0
   -0.1413    0.2180    0.0000 C   0  0  0  0  0  0  0  0  0  0  0  0
   -1.4001   -0.5978    0.0000 C   0  0  0  0  0  0  0  0  0  0  0  0
    1.1946   -0.4642    0.0000 C   0  0  0  0  0  0  0  0  0  0  0  0
   -2.7359    0.0845    0.0000 C   0  0  0  0  0  0  0  0  0  0  0  0
    2.4533    0.3516    0.0000 C   0  0  0  0  0  0  0  0  0  0  0  0
  1  9  1  0
  2  8  2  0
  3  9  2  0
  4 10  1  0
  5 10  2  0
  6  7  1  0
  6  8  1  0
  7  9  1  0
  8 10  1  0
M  END
>  <PUBCHEM_COMPOUND_CID>  (1) 
51

>  <PUBCHEM_COMPOUND_CANONICALIZED>  (1) 
1

>  <PUBCHEM_CACTVS_COMPLEXITY>  (1) 
171

>  <PUBCHEM_CACTVS_HBOND_ACCEPTOR>  (1) 
5

>  <PUBCHEM_CACTVS_HBOND_DONOR>  (1) 
2

>  <PUBCHEM_CACTVS_ROTATABLE_BOND>  (1) 
4

>  <PUBCHEM_CACTVS_SUBSKEYS>  (1) 
AAADcYBgOAAAAAAAAAAAAAAAAAAAAAAAAAAAAAAAAAAAAAAAAAAAGgAACAAACASAgAAACAAAAgAIAICQCAIAAAAAAAAAAAFAAAAAABIAAAAAQAAEAAAAAACLJgAAAAAAAAAAAAAAAAAAAAAAAAAAAAAAAA==

>  <PUBCHEM_IUPAC_OPENEYE_NAME>  (1) 
2-oxopentanedioic acid

>  <PUBCHEM_IUPAC_CAS_NAME>  (1) 
2-oxopentanedioic acid

>  <PUBCHEM_IUPAC_NAME_MARKUP>  (1) 
2-oxopentanedioic acid

>  <PUBCHEM_IUPAC_NAME>  (1) 
2-oxopentanedioic acid

>  <PUBCHEM_IUPAC_SYSTEMATIC_NAME>  (1) 
2-oxidanylidenepentanedioic acid

>  <PUBCHEM_IUPAC_TRADITIONAL_NAME>  (1) 
2-ketoglutaric acid

>  <PUBCHEM_IUPAC_INCHI>  (1) 
InChI=1S/C5H6O5/c6-3(5(9)10)1-2-4(7)8/h1-2H2,(H,7,8)(H,9,10)

>  <PUBCHEM_IUPAC_INCHIKEY>  (1) 
KPGXRSRHYNQIFN-UHFFFAOYSA-N

>  <PUBCHEM_XLOGP3_AA>  (1) 
-0.9

>  <PUBCHEM_EXACT_MASS>  (1) 
146.021523

>  <PUBCHEM_MOLECULAR_FORMULA>  (1) 
C5H6O5

>  <PUBCHEM_MOLECULAR_WEIGHT>  (1) 
146.1

>  <PUBCHEM_OPENEYE_CAN_SMILES>  (1) 
C(CC(=O)O)C(=O)C(=O)O

>  <PUBCHEM_OPENEYE_ISO_SMILES>  (1) 
C(CC(=O)O)C(=O)C(=O)O

>  <PUBCHEM_CACTVS_TPSA>  (1) 
91.7

>  <PUBCHEM_MONOISOTOPIC_WEIGHT>  (1) 
146.021523

>  <PUBCHEM_TOTAL_CHARGE>  (1) 
0

>  <PUBCHEM_HEAVY_ATOM_COUNT>  (1) 
10

>  <PUBCHEM_ATOM_DEF_STEREO_COUNT>  (1) 
0

>  <PUBCHEM_ATOM_UDEF_STEREO_COUNT>  (1) 
0

>  <PUBCHEM_BOND_DEF_STEREO_COUNT>  (1) 
0

>  <PUBCHEM_BOND_UDEF_STEREO_COUNT>  (1) 
0

>  <PUBCHEM_ISOTOPIC_ATOM_COUNT>  (1) 
0

>  <PUBCHEM_COMPONENT_COUNT>  (1) 
1

>  <PUBCHEM_CACTVS_TAUTO_COUNT>  (1) 
-1

>  <PUBCHEM_COORDINATE_TYPE>  (1) 
1
5
255

$$$$
