513
     RDKit          2D

 14 13  0  0  1  0  0  0  0  0999 V2000
   -1.6595   -1.7739    0.0000 O   0  0  0  0  0  0  0  0  0  0  0  0
   -0.1921   -2.9151    0.0000 O   0  0  0  0  0  0  0  0  0  0  0  0
   -0.2518    1.9367    0.0000 O   0  0  0  0  0  0  0  0  0  0  0  0
    2.0948   -1.6822    0.0000 O   0  0  0  0  0  0  0  0  0  0  0  0
   -2.8488    2.0123    0.0000 O   0  0  0  0  0  0  0  0  0  0  0  0
    2.9579    2.1915    0.0000 O   0  0  0  0  0  0  0  0  0  0  0  0
    2.8823   -0.4055    0.0000 O   0  0  0  0  0  0  0  0  0  0  0  0
   -0.1165   -0.3182    0.0000 C   0  0  0  0  0  0  0  0  0  0  0  0
   -1.6158   -0.2745    0.0000 C   0  0  0  0  0  0  0  0  0  0  0  0
    0.6710    0.9585    0.0000 C   0  0  0  0  0  0  0  0  0  0  0  0
   -3.1152   -0.2308    0.0000 C   0  0  0  0  0  0  0  0  0  0  0  0
    0.5954   -1.6385    0.0000 C   0  0  0  0  0  0  0  0  0  0  0  0
   -1.5722    1.2249    0.0000 C   0  0  0  0  0  0  0  0  0  0  0  0
    2.1704    0.9148    0.0000 C   0  0  0  0  0  0  0  0  0  0  0  0
  1  9  1  0
  2 12  1  0
  3 13  1  0
  4 12  2  0
  5 13  2  0
  6 14  1  0
  7 14  2  0
  8  9  1  0
  8 10  1  0
  8 12  1  0
  9 11  1  0
  9 13  1  0
 10 14  1  0
M  END
>  <PUBCHEM_COMPOUND_CID>  (1) 
513

>  <PUBCHEM_COMPOUND_CANONICALIZED>  (1) 
1

>  <PUBCHEM_CACTVS_COMPLEXITY>  (1) 
271

>  <PUBCHEM_CACTVS_HBOND_ACCEPTOR>  (1) 
7

>  <PUBCHEM_CACTVS_HBOND_DONOR>  (1) 
4

>  <PUBCHEM_CACTVS_ROTATABLE_BOND>  (1) 
5

>  <PUBCHEM_CACTVS_SUBSKEYS>  (1) 
AAADccBgOAAAAAAAAAAAAAAAAAAAAAAAAAAAAAAAAAAAAAAAAAAAGgAACAAADUSAgAACCAAAAgAIAACQCAIAAAAAAAAAAAFAAAABABYAAAAAQAAFIAABAADLJgAOgAAAAAAAAAAAAAAAAAAAAAAAAAAAAA==

>  <PUBCHEM_IUPAC_OPENEYE_NAME>  (1) 
3-hydroxybutane-1,2,3-tricarboxylic acid

>  <PUBCHEM_IUPAC_CAS_NAME>  (1) 
3-hydroxybutane-1,2,3-tricarboxylic acid

>  <PUBCHEM_IUPAC_NAME_MARKUP>  (1) 
3-hydroxybutane-1,2,3-tricarboxylic acid

>  <PUBCHEM_IUPAC_NAME>  (1) 
3-hydroxybutane-1,2,3-tricarboxylic acid

>  <PUBCHEM_IUPAC_SYSTEMATIC_NAME>  (1) 
3-oxidanylbutane-1,2,3-tricarboxylic acid

>  <PUBCHEM_IUPAC_TRADITIONAL_NAME>  (1) 
3-hydroxybutane-1,2,3-tricarboxylic acid

>  <PUBCHEM_IUPAC_INCHI>  (1) 
InChI=1S/C7H10O7/c1-7(14,6(12)13)3(5(10)11)2-4(8)9/h3,14H,2H2,1H3,(H,8,9)(H,10,11)(H,12,13)

>  <PUBCHEM_IUPAC_INCHIKEY>  (1) 
HHKPKXCSHMJWCF-UHFFFAOYSA-N

>  <PUBCHEM_XLOGP3_AA>  (1) 
-1.6

>  <PUBCHEM_EXACT_MASS>  (1) 
206.042653

>  <PUBCHEM_MOLECULAR_FORMULA>  (1) 
C7H10O7

>  <PUBCHEM_MOLECULAR_WEIGHT>  (1) 
206.15

>  <PUBCHEM_OPENEYE_CAN_SMILES>  (1) 
CC(C(CC(=O)O)C(=O)O)(C(=O)O)O

>  <PUBCHEM_OPENEYE_ISO_SMILES>  (1) 
CC(C(CC(=O)O)C(=O)O)(C(=O)O)O

>  <PUBCHEM_CACTVS_TPSA>  (1) 
132

>  <PUBCHEM_MONOISOTOPIC_WEIGHT>  (1) 
206.042653

>  <PUBCHEM_TOTAL_CHARGE>  (1) 
0

>  <PUBCHEM_HEAVY_ATOM_COUNT>  (1) 
14

>  <PUBCHEM_ATOM_DEF_STEREO_COUNT>  (1) 
0

>  <PUBCHEM_ATOM_UDEF_STEREO_COUNT>  (1) 
2

>  <PUBCHEM_BOND_DEF_STEREO_COUNT>  (1) 
0

>  <PUBCHEM_BOND_UDEF_STEREO_COUNT>  (1) 
0

>  <PUBCHEM_ISOTOPIC_ATOM_COUNT>  (1) 
0

>  <PUBCHEM_COMPONENT_COUNT>  (1) 
1

>  <PUBCHEM_CACTVS_TAUTO_COUNT>  (1) 
-1

>  <PUBCHEM_COORDINATE_TYPE>  (1) 
1
5
255

>  <PUBCHEM_BONDANNOTATIONS>  (1) 
9  1  3
8  10  3

$$$$
