515
     RDKit          2D

 14 13  0  0  1  0  0  0  0  0999 V2000
   -0.3604   -1.1266    0.0000 O   0  0  0  0  0  0  0  0  0  0  0  0
   -0.9933    2.7912    0.0000 O   0  0  0  0  0  0  0  0  0  0  0  0
    0.9278   -2.4669    0.0000 O   0  0  0  0  0  0  0  0  0  0  0  0
    1.5659    2.3432    0.0000 O   0  0  0  0  0  0  0  0  0  0  0  0
    3.3681   -1.5754    0.0000 O   0  0  0  0  0  0  0  0  0  0  0  0
   -2.0273   -1.9496    0.0000 O   0  0  0  0  0  0  0  0  0  0  0  0
   -4.0196   -0.2820    0.0000 O   0  0  0  0  0  0  0  0  0  0  0  0
   -0.1017    0.3509    0.0000 C   0  0  0  0  0  0  0  0  0  0  0  0
    1.3758    0.0922    0.0000 C   0  0  0  0  0  0  0  0  0  0  0  0
   -1.5793    0.6096    0.0000 C   0  0  0  0  0  0  0  0  0  0  0  0
    2.3386    1.2425    0.0000 C   0  0  0  0  0  0  0  0  0  0  0  0
    0.1570    1.8284    0.0000 C   0  0  0  0  0  0  0  0  0  0  0  0
    1.8905   -1.3167    0.0000 C   0  0  0  0  0  0  0  0  0  0  0  0
   -2.5420   -0.5407    0.0000 C   0  0  0  0  0  0  0  0  0  0  0  0
  1  8  1  0
  2 12  1  0
  3 13  1  0
  4 12  2  0
  5 13  2  0
  6 14  1  0
  7 14  2  0
  8  9  1  0
  8 10  1  0
  8 12  1  0
  9 11  1  0
  9 13  1  0
 10 14  1  0
M  END
>  <PUBCHEM_COMPOUND_CID>  (1) 
515

>  <PUBCHEM_COMPOUND_CANONICALIZED>  (1) 
1

>  <PUBCHEM_CACTVS_COMPLEXITY>  (1) 
271

>  <PUBCHEM_CACTVS_HBOND_ACCEPTOR>  (1) 
7

>  <PUBCHEM_CACTVS_HBOND_DONOR>  (1) 
4

>  <PUBCHEM_CACTVS_ROTATABLE_BOND>  (1) 
5

>  <PUBCHEM_CACTVS_SUBSKEYS>  (1) 
AAADccBgOAAAAAAAAAAAAAAAAAAAAAAAAAAAAAAAAAAAAAAAAAAAGgAACAAADUSAgAACCAAAAgAIAACQCAIAAAAAAAAAAAFAAAABABYAAAAAQAAFIAABAADLJgAOgAAAAAAAAAAAAAAAAAAAAAAAAAAAAA==

>  <PUBCHEM_IUPAC_OPENEYE_NAME>  (1) 
2-hydroxybutane-1,2,3-tricarboxylic acid

>  <PUBCHEM_IUPAC_CAS_NAME>  (1) 
2-hydroxybutane-1,2,3-tricarboxylic acid

>  <PUBCHEM_IUPAC_NAME_MARKUP>  (1) 
2-hydroxybutane-1,2,3-tricarboxylic acid

>  <PUBCHEM_IUPAC_NAME>  (1) 
2-hydroxybutane-1,2,3-tricarboxylic acid

>  <PUBCHEM_IUPAC_SYSTEMATIC_NAME>  (1) 
2-oxidanylbutane-1,2,3-tricarboxylic acid

>  <PUBCHEM_IUPAC_TRADITIONAL_NAME>  (1) 
2-hydroxybutane-1,2,3-tricarboxylic acid

>  <PUBCHEM_IUPAC_INCHI>  (1) 
InChI=1S/C7H10O7/c1-3(5(10)11)7(14,6(12)13)2-4(8)9/h3,14H,2H2,1H3,(H,8,9)(H,10,11)(H,12,13)

>  <PUBCHEM_IUPAC_INCHIKEY>  (1) 
YNOXCRMFGMSKIJ-UHFFFAOYSA-N

>  <PUBCHEM_XLOGP3_AA>  (1) 
-1.4

>  <PUBCHEM_EXACT_MASS>  (1) 
206.042653

>  <PUBCHEM_MOLECULAR_FORMULA>  (1) 
C7H10O7

>  <PUBCHEM_MOLECULAR_WEIGHT>  (1) 
206.15

>  <PUBCHEM_OPENEYE_CAN_SMILES>  (1) 
CC(C(=O)O)C(CC(=O)O)(C(=O)O)O

>  <PUBCHEM_OPENEYE_ISO_SMILES>  (1) 
CC(C(=O)O)C(CC(=O)O)(C(=O)O)O

>  <PUBCHEM_CACTVS_TPSA>  (1) 
132

>  <PUBCHEM_MONOISOTOPIC_WEIGHT>  (1) 
206.042653

>  <PUBCHEM_TOTAL_CHARGE>  (1) 
0

>  <PUBCHEM_HEAVY_ATOM_COUNT>  (1) 
14

>  <PUBCHEM_ATOM_DEF_STEREO_COUNT>  (1) 
0

>  <PUBCHEM_ATOM_UDEF_STEREO_COUNT>  (1) 
2

>  <PUBCHEM_BOND_DEF_STEREO_COUNT>  (1) 
0

>  <PUBCHEM_BOND_UDEF_STEREO_COUNT>  (1) 
0

>  <PUBCHEM_ISOTOPIC_ATOM_COUNT>  (1) 
0

>  <PUBCHEM_COMPONENT_COUNT>  (1) 
1

>  <PUBCHEM_CACTVS_TAUTO_COUNT>  (1) 
-1

>  <PUBCHEM_COORDINATE_TYPE>  (1) 
1
5
255

>  <PUBCHEM_BONDANNOTATIONS>  (1) 
8  1  3
9  11  3

$$$$
