517
     RDKit          2D

 63 67  0  0  1  0  0  0  0  0999 V2000
    7.1323    3.7205    0.0000 O   0  0  0  0  0  0  0  0  0  0  0  0
    5.4984    5.7405    0.0000 O   0  0  0  0  0  0  0  0  0  0  0  0
    6.4139   -6.4714    0.0000 O   0  0  0  0  0  0  0  0  0  0  0  0
    3.8193   -6.6060    0.0000 O   0  0  0  0  0  0  0  0  0  0  0  0
    4.2699    9.2999    0.0000 O   0  0  0  0  0  0  0  0  0  0  0  0
    9.1101   -4.7140    0.0000 O   0  0  0  0  0  0  0  0  0  0  0  0
    1.6753    9.1654    0.0000 O   0  0  0  0  0  0  0  0  0  0  0  0
    8.9755   -2.1194    0.0000 O   0  0  0  0  0  0  0  0  0  0  0  0
   -3.3644   -8.3059    0.0000 O   0  0  0  0  0  0  0  0  0  0  0  0
   -3.9948    7.0414    0.0000 O   0  0  0  0  0  0  0  0  0  0  0  0
   -4.7783   -6.1262    0.0000 O   0  0  0  0  0  0  0  0  0  0  0  0
   -1.9766    5.4053    0.0000 O   0  0  0  0  0  0  0  0  0  0  0  0
   -8.6507   -2.8604    0.0000 O   0  0  0  0  0  0  0  0  0  0  0  0
   -9.3120    4.1788    0.0000 O   0  0  0  0  0  0  0  0  0  0  0  0
   -7.7209   -5.2864    0.0000 O   0  0  0  0  0  0  0  0  0  0  0  0
   -9.1774    1.5842    0.0000 O   0  0  0  0  0  0  0  0  0  0  0  0
    1.2789    2.3274    0.0000 N   0  0  0  0  0  0  0  0  0  0  0  0
    3.2625   -2.1471    0.0000 N   0  0  0  0  0  0  0  0  0  0  0  0
   -2.0560   -3.2746    0.0000 N   0  0  0  0  0  0  0  0  0  0  0  0
   -3.1835    2.0440    0.0000 N   0  0  0  0  0  0  0  0  0  0  0  0
    3.1659    3.8538    0.0000 C   0  0  0  0  0  0  0  0  0  0  0  0
    1.9084    4.6714    0.0000 C   0  0  0  0  0  0  0  0  0  0  0  0
    3.6639   -3.6100    0.0000 C   0  0  0  0  0  0  0  0  0  0  0  0
    4.4816   -2.3525    0.0000 C   0  0  0  0  0  0  0  0  0  0  0  0
    2.7769    2.4051    0.0000 C   0  0  0  0  0  0  0  0  0  0  0  0
    3.8191   -0.7542    0.0000 C   0  0  0  0  0  0  0  0  0  0  0  0
    0.7421    3.7280    0.0000 C   0  0  0  0  0  0  0  0  0  0  0  0
    4.5660    3.3154    0.0000 C   0  0  0  0  0  0  0  0  0  0  0  0
    2.2153   -3.2210    0.0000 C   0  0  0  0  0  0  0  0  0  0  0  0
    1.8307    6.1694    0.0000 C   0  0  0  0  0  0  0  0  0  0  0  0
    3.8003    0.7457    0.0000 C   0  0  0  0  0  0  0  0  0  0  0  0
    3.8476    5.1899    0.0000 C   0  0  0  0  0  0  0  0  0  0  0  0
    5.9796   -2.2748    0.0000 C   0  0  0  0  0  0  0  0  0  0  0  0
    5.0001   -4.2917    0.0000 C   0  0  0  0  0  0  0  0  0  0  0  0
    3.1256   -5.0101    0.0000 C   0  0  0  0  0  0  0  0  0  0  0  0
    0.8367   -3.8124    0.0000 C   0  0  0  0  0  0  0  0  0  0  0  0
   -0.7577    3.7092    0.0000 C   0  0  0  0  0  0  0  0  0  0  0  0
    3.0891    6.9857    0.0000 C   0  0  0  0  0  0  0  0  0  0  0  0
    6.7958   -3.5332    0.0000 C   0  0  0  0  0  0  0  0  0  0  0  0
    5.7322    4.2588    0.0000 C   0  0  0  0  0  0  0  0  0  0  0  0
   -0.6631   -3.8312    0.0000 C   0  0  0  0  0  0  0  0  0  0  0  0
   -2.1363    3.1179    0.0000 C   0  0  0  0  0  0  0  0  0  0  0  0
    5.0778   -5.7897    0.0000 C   0  0  0  0  0  0  0  0  0  0  0  0
    1.1478   -5.2798    0.0000 C   0  0  0  0  0  0  0  0  0  0  0  0
   -2.2614   -4.4936    0.0000 C   0  0  0  0  0  0  0  0  0  0  0  0
   -3.1299   -2.2273    0.0000 C   0  0  0  0  0  0  0  0  0  0  0  0
   -3.8658    3.0749    0.0000 C   0  0  0  0  0  0  0  0  0  0  0  0
   -3.7401    0.6511    0.0000 C   0  0  0  0  0  0  0  0  0  0  0  0
   -3.5189   -3.6760    0.0000 C   0  0  0  0  0  0  0  0  0  0  0  0
   -3.7213   -0.8488    0.0000 C   0  0  0  0  0  0  0  0  0  0  0  0
   -4.6835    1.8173    0.0000 C   0  0  0  0  0  0  0  0  0  0  0  0
    3.0114    8.4836    0.0000 C   0  0  0  0  0  0  0  0  0  0  0  0
    8.2938   -3.4555    0.0000 C   0  0  0  0  0  0  0  0  0  0  0  0
   -2.1837   -5.9916    0.0000 C   0  0  0  0  0  0  0  0  0  0  0  0
   -4.9196   -4.2128    0.0000 C   0  0  0  0  0  0  0  0  0  0  0  0
   -4.4026    4.4755    0.0000 C   0  0  0  0  0  0  0  0  0  0  0  0
   -6.1815    1.7396    0.0000 C   0  0  0  0  0  0  0  0  0  0  0  0
   -6.0848   -3.2682    0.0000 C   0  0  0  0  0  0  0  0  0  0  0  0
   -6.9977    2.9981    0.0000 C   0  0  0  0  0  0  0  0  0  0  0  0
   -3.4421   -6.8079    0.0000 C   0  0  0  0  0  0  0  0  0  0  0  0
   -3.4580    5.6407    0.0000 C   0  0  0  0  0  0  0  0  0  0  0  0
   -7.4855   -3.8050    0.0000 C   0  0  0  0  0  0  0  0  0  0  0  0
   -8.4957    2.9204    0.0000 C   0  0  0  0  0  0  0  0  0  0  0  0
  1 40  1  0
  2 40  2  0
  3 43  1  0
  4 43  2  0
  5 52  1  0
  6 53  1  0
  7 52  2  0
  8 53  2  0
  9 60  1  0
 10 61  1  0
 11 60  2  0
 12 61  2  0
 13 62  1  0
 14 63  1  0
 15 62  2  0
 16 63  2  0
 17 25  1  0
 17 27  1  0
 18 26  2  0
 18 29  1  0
 19 41  1  0
 19 46  1  0
 20 42  1  0
 20 48  1  0
 21 22  1  0
 21 25  1  0
 21 28  1  0
 21 32  1  0
 22 27  1  0
 22 30  1  0
 23 24  1  0
 23 29  1  0
 23 34  1  0
 23 35  1  0
 24 26  1  0
 24 33  1  0
 25 31  2  3
 26 31  1  0
 27 37  2  3
 28 40  1  0
 29 36  2  3
 30 38  1  0
 33 39  1  0
 34 43  1  0
 36 41  1  0
 36 44  1  0
 37 42  1  0
 38 52  1  0
 39 53  1  0
 41 45  2  0
 42 47  2  0
 45 49  1  0
 45 54  1  0
 46 49  2  0
 46 50  1  0
 47 51  1  0
 47 56  1  0
 48 50  1  0
 48 51  2  0
 49 55  1  0
 51 57  1  0
 54 60  1  0
 55 58  1  0
 56 61  1  0
 57 59  1  0
 58 62  1  0
 59 63  1  0
M  END
>  <PUBCHEM_COMPOUND_CID>  (1) 
517

>  <PUBCHEM_COMPOUND_CANONICALIZED>  (1) 
1

>  <PUBCHEM_CACTVS_COMPLEXITY>  (1) 
2030

>  <PUBCHEM_CACTVS_HBOND_ACCEPTOR>  (1) 
18

>  <PUBCHEM_CACTVS_HBOND_DONOR>  (1) 
11

>  <PUBCHEM_CACTVS_ROTATABLE_BOND>  (1) 
20

>  <PUBCHEM_CACTVS_SUBSKEYS>  (1) 
AAADcfB/vgAAAAAAAAAAAAAAAAAAAWLFiAAAAAAAAAAAAAAB4AAAHgAQCAAADwiBngACiJLJkgCoAyTyTACCgCAhAiAAmSEwRJgIIHLA1ZGEYAhk0AHIyAe82fOfgAAAAAAAAAAAAAAAAAAAAAAAAAAAAA==

>  <PUBCHEM_IUPAC_OPENEYE_NAME>  (1) 
3-[7,13,17-tris(2-carboxyethyl)-3,8,12,18-tetrakis(carboxymethyl)-3,8,10-trimethyl-2,7,15,21,23,24-hexahydroporphyrin-2-yl]propanoic acid

>  <PUBCHEM_IUPAC_CAS_NAME>  (1) 
3-[7,13,17-tris(2-carboxyethyl)-3,8,12,18-tetrakis(carboxymethyl)-3,8,10-trimethyl-2,7,15,21,23,24-hexahydroporphyrin-2-yl]propanoic acid

>  <PUBCHEM_IUPAC_NAME_MARKUP>  (1) 
3-[7,13,17-tris(2-carboxyethyl)-3,8,12,18-tetrakis(carboxymethyl)-3,8,10-trimethyl-2,7,15,21,23,24-hexahydroporphyrin-2-yl]propanoic acid

>  <PUBCHEM_IUPAC_NAME>  (1) 
3-[7,13,17-tris(2-carboxyethyl)-3,8,12,18-tetrakis(carboxymethyl)-3,8,10-trimethyl-2,7,15,21,23,24-hexahydroporphyrin-2-yl]propanoic acid

>  <PUBCHEM_IUPAC_SYSTEMATIC_NAME>  (1) 
3-[3,8,12,18-tetrakis(2-hydroxy-2-oxoethyl)-7,13,17-tris(3-hydroxy-3-oxopropyl)-3,8,10-trimethyl-2,7,15,21,23,24-hexahydroporphyrin-2-yl]propanoic acid

>  <PUBCHEM_IUPAC_TRADITIONAL_NAME>  (1) 
3-[7,13,17-tris(2-carboxyethyl)-3,8,12,18-tetrakis(carboxymethyl)-3,8,10-trimethyl-2,7,15,21,23,24-hexahydroporphin-2-yl]propionic acid

>  <PUBCHEM_IUPAC_INCHI>  (1) 
InChI=1S/C43H50N4O16/c1-19-40-23(13-37(58)59)21(5-9-33(50)51)27(46-40)14-26-20(4-8-32(48)49)22(12-36(56)57)28(44-26)15-29-24(6-10-34(52)53)42(2,17-38(60)61)31(45-29)16-30-25(7-11-35(54)55)43(3,18-39(62)63)41(19)47-30/h15-16,24-25,44-46H,4-14,17-18H2,1-3H3,(H,48,49)(H,50,51)(H,52,53)(H,54,55)(H,56,57)(H,58,59)(H,60,61)(H,62,63)

>  <PUBCHEM_IUPAC_INCHIKEY>  (1) 
VNBNVFSXZUYRKF-UHFFFAOYSA-N

>  <PUBCHEM_XLOGP3_AA>  (1) 
0

>  <PUBCHEM_EXACT_MASS>  (1) 
878.322182

>  <PUBCHEM_MOLECULAR_FORMULA>  (1) 
C43H50N4O16

>  <PUBCHEM_MOLECULAR_WEIGHT>  (1) 
878.9

>  <PUBCHEM_OPENEYE_CAN_SMILES>  (1) 
CC1=C2C(C(C(=N2)C=C3C(C(C(=CC4=C(C(=C(N4)CC5=C(C(=C1N5)CC(=O)O)CCC(=O)O)CCC(=O)O)CC(=O)O)N3)CCC(=O)O)(C)CC(=O)O)CCC(=O)O)(C)CC(=O)O

>  <PUBCHEM_OPENEYE_ISO_SMILES>  (1) 
CC1=C2C(C(C(=N2)C=C3C(C(C(=CC4=C(C(=C(N4)CC5=C(C(=C1N5)CC(=O)O)CCC(=O)O)CCC(=O)O)CC(=O)O)N3)CCC(=O)O)(C)CC(=O)O)CCC(=O)O)(C)CC(=O)O

>  <PUBCHEM_CACTVS_TPSA>  (1) 
354

>  <PUBCHEM_MONOISOTOPIC_WEIGHT>  (1) 
878.322182

>  <PUBCHEM_TOTAL_CHARGE>  (1) 
0

>  <PUBCHEM_HEAVY_ATOM_COUNT>  (1) 
63

>  <PUBCHEM_ATOM_DEF_STEREO_COUNT>  (1) 
0

>  <PUBCHEM_ATOM_UDEF_STEREO_COUNT>  (1) 
4

>  <PUBCHEM_BOND_DEF_STEREO_COUNT>  (1) 
0

>  <PUBCHEM_BOND_UDEF_STEREO_COUNT>  (1) 
3

>  <PUBCHEM_ISOTOPIC_ATOM_COUNT>  (1) 
0

>  <PUBCHEM_COMPONENT_COUNT>  (1) 
1

>  <PUBCHEM_CACTVS_TAUTO_COUNT>  (1) 
-1

>  <PUBCHEM_COORDINATE_TYPE>  (1) 
1
5
255

>  <PUBCHEM_BONDANNOTATIONS>  (1) 
19  41  8
19  46  8
20  42  8
20  48  8
21  32  3
22  30  3
23  35  3
24  33  3
25  31  1
27  37  1
29  36  1
41  45  8
42  47  8
45  49  8
46  49  8
47  51  8
48  51  8

$$$$
