520
     RDKit          2D

 25 24  0  0  1  0  0  0  0  0999 V2000
   10.1875    0.1665    0.0000 P   0  0  0  0  0  0  0  0  0  0  0  0
    5.0115    1.7345    0.0000 O   0  0  0  0  0  0  0  0  0  0  0  0
    8.8788   -0.5664    0.0000 O   0  0  0  0  0  0  0  0  0  0  0  0
    9.4546    1.4753    0.0000 O   0  0  0  0  0  0  0  0  0  0  0  0
   11.4963    0.8994    0.0000 O   0  0  0  0  0  0  0  0  0  0  0  0
   10.9204   -1.1422    0.0000 O   0  0  0  0  0  0  0  0  0  0  0  0
    6.2612   -2.0322    0.0000 N   0  0  0  0  0  0  0  0  0  0  0  0
   -0.2039    0.3027    0.0000 C   0  0  0  0  0  0  0  0  0  0  0  0
   -1.5127   -0.4302    0.0000 C   0  0  0  0  0  0  0  0  0  0  0  0
    1.0852   -0.4643    0.0000 C   0  0  0  0  0  0  0  0  0  0  0  0
   -2.8017    0.3367    0.0000 C   0  0  0  0  0  0  0  0  0  0  0  0
    2.3940    0.2687    0.0000 C   0  0  0  0  0  0  0  0  0  0  0  0
   -4.1105   -0.3962    0.0000 C   0  0  0  0  0  0  0  0  0  0  0  0
    3.6831   -0.4983    0.0000 C   0  0  0  0  0  0  0  0  0  0  0  0
   -5.3996    0.3708    0.0000 C   0  0  0  0  0  0  0  0  0  0  0  0
    4.9918    0.2346    0.0000 C   0  0  0  0  0  0  0  0  0  0  0  0
   -6.7084   -0.3621    0.0000 C   0  0  0  0  0  0  0  0  0  0  0  0
   -7.9975    0.4048    0.0000 C   0  0  0  0  0  0  0  0  0  0  0  0
    6.2809   -0.5324    0.0000 C   0  0  0  0  0  0  0  0  0  0  0  0
   -9.3062   -0.3281    0.0000 C   0  0  0  0  0  0  0  0  0  0  0  0
  -10.5953    0.4389    0.0000 C   0  0  0  0  0  0  0  0  0  0  0  0
    7.5897    0.2006    0.0000 C   0  0  0  0  0  0  0  0  0  0  0  0
  -11.9041   -0.2940    0.0000 C   0  0  0  0  0  0  0  0  0  0  0  0
  -13.1932    0.4729    0.0000 C   0  0  0  0  0  0  0  0  0  0  0  0
  -14.5019   -0.2600    0.0000 C   0  0  0  0  0  0  0  0  0  0  0  0
  1  3  1  0
  1  4  1  0
  1  5  1  0
  1  6  2  0
  2 16  1  0
  3 22  1  0
  7 19  1  0
  8  9  1  0
  8 10  1  0
  9 11  1  0
 10 12  1  0
 11 13  1  0
 12 14  1  0
 13 15  1  0
 14 16  1  0
 15 17  1  0
 16 19  1  0
 17 18  1  0
 18 20  1  0
 19 22  1  0
 20 21  1  0
 21 23  1  0
 23 24  1  0
 24 25  1  0
M  END
>  <PUBCHEM_COMPOUND_CID>  (1) 
520

>  <PUBCHEM_COMPOUND_CANONICALIZED>  (1) 
1

>  <PUBCHEM_CACTVS_COMPLEXITY>  (1) 
337

>  <PUBCHEM_CACTVS_HBOND_ACCEPTOR>  (1) 
6

>  <PUBCHEM_CACTVS_HBOND_DONOR>  (1) 
4

>  <PUBCHEM_CACTVS_ROTATABLE_BOND>  (1) 
18

>  <PUBCHEM_CACTVS_SUBSKEYS>  (1) 
AAADcfB6OAIAAAAAAAAAAAAAAAAAAAAAAAAAAAAAAAAAAAAAAAAAHgAQCCAACDzhgAYCAABAAxAAQAAAAIAAAAAAAAAAAIAAAAACEAIAgAAAQAAFEAAAAAGQwKAAAAAAAAAAAAAAAAAAAAAAAAAAAAAAAA==

>  <PUBCHEM_IUPAC_OPENEYE_NAME>  (1) 
(2-amino-3-hydroxy-octadecyl) dihydrogen phosphate

>  <PUBCHEM_IUPAC_CAS_NAME>  (1) 
(2-amino-3-hydroxyoctadecyl) dihydrogen phosphate

>  <PUBCHEM_IUPAC_NAME_MARKUP>  (1) 
(2-amino-3-hydroxyoctadecyl) dihydrogen phosphate

>  <PUBCHEM_IUPAC_NAME>  (1) 
(2-amino-3-hydroxyoctadecyl) dihydrogen phosphate

>  <PUBCHEM_IUPAC_SYSTEMATIC_NAME>  (1) 
(2-azanyl-3-oxidanyl-octadecyl) dihydrogen phosphate

>  <PUBCHEM_IUPAC_TRADITIONAL_NAME>  (1) 
(2-amino-3-hydroxy-octadecyl) dihydrogen phosphate

>  <PUBCHEM_IUPAC_INCHI>  (1) 
InChI=1S/C18H40NO5P/c1-2-3-4-5-6-7-8-9-10-11-12-13-14-15-18(20)17(19)16-24-25(21,22)23/h17-18,20H,2-16,19H2,1H3,(H2,21,22,23)

>  <PUBCHEM_IUPAC_INCHIKEY>  (1) 
YHEDRJPUIRMZMP-UHFFFAOYSA-N

>  <PUBCHEM_XLOGP3_AA>  (1) 
2.4

>  <PUBCHEM_EXACT_MASS>  (1) 
381.26441

>  <PUBCHEM_MOLECULAR_FORMULA>  (1) 
C18H40NO5P

>  <PUBCHEM_MOLECULAR_WEIGHT>  (1) 
381.5

>  <PUBCHEM_OPENEYE_CAN_SMILES>  (1) 
CCCCCCCCCCCCCCCC(C(COP(=O)(O)O)N)O

>  <PUBCHEM_OPENEYE_ISO_SMILES>  (1) 
CCCCCCCCCCCCCCCC(C(COP(=O)(O)O)N)O

>  <PUBCHEM_CACTVS_TPSA>  (1) 
113

>  <PUBCHEM_MONOISOTOPIC_WEIGHT>  (1) 
381.26441

>  <PUBCHEM_TOTAL_CHARGE>  (1) 
0

>  <PUBCHEM_HEAVY_ATOM_COUNT>  (1) 
25

>  <PUBCHEM_ATOM_DEF_STEREO_COUNT>  (1) 
0

>  <PUBCHEM_ATOM_UDEF_STEREO_COUNT>  (1) 
2

>  <PUBCHEM_BOND_DEF_STEREO_COUNT>  (1) 
0

>  <PUBCHEM_BOND_UDEF_STEREO_COUNT>  (1) 
0

>  <PUBCHEM_ISOTOPIC_ATOM_COUNT>  (1) 
0

>  <PUBCHEM_COMPONENT_COUNT>  (1) 
1

>  <PUBCHEM_CACTVS_TAUTO_COUNT>  (1) 
-1

>  <PUBCHEM_COORDINATE_TYPE>  (1) 
1
5
255

>  <PUBCHEM_BONDANNOTATIONS>  (1) 
16  2  3
19  7  3

$$$$
