524
     RDKit          2D

 10  9  0  0  1  0  0  0  0  0999 V2000
    0.3742    1.9487    0.0000 O   0  0  0  0  0  0  0  0  0  0  0  0
    3.1604    0.8364    0.0000 O   0  0  0  0  0  0  0  0  0  0  0  0
   -0.3742   -1.9487    0.0000 O   0  0  0  0  0  0  0  0  0  0  0  0
    2.1971   -1.5765    0.0000 O   0  0  0  0  0  0  0  0  0  0  0  0
   -3.1604   -0.8364    0.0000 O   0  0  0  0  0  0  0  0  0  0  0  0
   -2.1971    1.5765    0.0000 O   0  0  0  0  0  0  0  0  0  0  0  0
    0.5891    0.4642    0.0000 C   0  0  0  0  0  0  0  0  0  0  0  0
   -0.5891   -0.4642    0.0000 C   0  0  0  0  0  0  0  0  0  0  0  0
    1.9822   -0.0920    0.0000 C   0  0  0  0  0  0  0  0  0  0  0  0
   -1.9822    0.0920    0.0000 C   0  0  0  0  0  0  0  0  0  0  0  0
  1  7  1  0
  2  9  1  0
  3  8  2  0
  4  9  2  0
  5 10  1  0
  6 10  2  0
  7  8  1  0
  7  9  1  0
  8 10  1  0
M  END
>  <PUBCHEM_COMPOUND_CID>  (1) 
524

>  <PUBCHEM_COMPOUND_CANONICALIZED>  (1) 
1

>  <PUBCHEM_CACTVS_COMPLEXITY>  (1) 
182

>  <PUBCHEM_CACTVS_HBOND_ACCEPTOR>  (1) 
6

>  <PUBCHEM_CACTVS_HBOND_DONOR>  (1) 
3

>  <PUBCHEM_CACTVS_ROTATABLE_BOND>  (1) 
3

>  <PUBCHEM_CACTVS_SUBSKEYS>  (1) 
AAADcYBgOAAAAAAAAAAAAAAAAAAAAAAAAAAAAAAAAAAAAAAAAAAAGgAACAAACBSggAIACAAAAgAIAICQCAIAAAAAAAAAAAFAAAABEBQIAAAAQAAFIAABAABDAAAAAAAAAAAAAAAAAAAAAAAAAAAAAAAAAA==

>  <PUBCHEM_IUPAC_OPENEYE_NAME>  (1) 
2-hydroxy-3-oxo-butanedioic acid

>  <PUBCHEM_IUPAC_CAS_NAME>  (1) 
2-hydroxy-3-oxobutanedioic acid

>  <PUBCHEM_IUPAC_NAME_MARKUP>  (1) 
2-hydroxy-3-oxobutanedioic acid

>  <PUBCHEM_IUPAC_NAME>  (1) 
2-hydroxy-3-oxobutanedioic acid

>  <PUBCHEM_IUPAC_SYSTEMATIC_NAME>  (1) 
2-oxidanyl-3-oxidanylidene-butanedioic acid

>  <PUBCHEM_IUPAC_TRADITIONAL_NAME>  (1) 
2-hydroxy-3-keto-succinic acid

>  <PUBCHEM_IUPAC_INCHI>  (1) 
InChI=1S/C4H4O6/c5-1(3(7)8)2(6)4(9)10/h1,5H,(H,7,8)(H,9,10)

>  <PUBCHEM_IUPAC_INCHIKEY>  (1) 
RMHHUKGVZFVHED-UHFFFAOYSA-N

>  <PUBCHEM_XLOGP3_AA>  (1) 
-1.2

>  <PUBCHEM_EXACT_MASS>  (1) 
148.000788

>  <PUBCHEM_MOLECULAR_FORMULA>  (1) 
C4H4O6

>  <PUBCHEM_MOLECULAR_WEIGHT>  (1) 
148.07

>  <PUBCHEM_OPENEYE_CAN_SMILES>  (1) 
C(C(=O)C(=O)O)(C(=O)O)O

>  <PUBCHEM_OPENEYE_ISO_SMILES>  (1) 
C(C(=O)C(=O)O)(C(=O)O)O

>  <PUBCHEM_CACTVS_TPSA>  (1) 
112

>  <PUBCHEM_MONOISOTOPIC_WEIGHT>  (1) 
148.000788

>  <PUBCHEM_TOTAL_CHARGE>  (1) 
0

>  <PUBCHEM_HEAVY_ATOM_COUNT>  (1) 
10

>  <PUBCHEM_ATOM_DEF_STEREO_COUNT>  (1) 
0

>  <PUBCHEM_ATOM_UDEF_STEREO_COUNT>  (1) 
1

>  <PUBCHEM_BOND_DEF_STEREO_COUNT>  (1) 
0

>  <PUBCHEM_BOND_UDEF_STEREO_COUNT>  (1) 
0

>  <PUBCHEM_ISOTOPIC_ATOM_COUNT>  (1) 
0

>  <PUBCHEM_COMPONENT_COUNT>  (1) 
1

>  <PUBCHEM_CACTVS_TAUTO_COUNT>  (1) 
-1

>  <PUBCHEM_COORDINATE_TYPE>  (1) 
1
5
255

>  <PUBCHEM_BONDANNOTATIONS>  (1) 
7  1  3

$$$$
