528
     RDKit          2D

 11 10  0  0  1  0  0  0  0  0999 V2000
    2.0743    0.7166    0.0000 O   0  0  0  0  0  0  0  0  0  0  0  0
   -4.3384   -0.5594    0.0000 O   0  0  0  0  0  0  0  0  0  0  0  0
   -3.2267    1.7889    0.0000 O   0  0  0  0  0  0  0  0  0  0  0  0
    3.5521   -1.4203    0.0000 O   0  0  0  0  0  0  0  0  0  0  0  0
   -1.6269   -1.8430    0.0000 N   0  0  0  0  0  0  0  0  0  0  0  0
   -0.5152    0.5052    0.0000 C   0  0  0  0  0  0  0  0  0  0  0  0
   -1.7489   -0.3480    0.0000 C   0  0  0  0  0  0  0  0  0  0  0  0
    0.8406   -0.1366    0.0000 C   0  0  0  0  0  0  0  0  0  0  0  0
   -3.1047    0.2938    0.0000 C   0  0  0  0  0  0  0  0  0  0  0  0
    3.4300    0.0748    0.0000 C   0  0  0  0  0  0  0  0  0  0  0  0
    4.6637    0.9280    0.0000 C   0  0  0  0  0  0  0  0  0  0  0  0
  1  8  1  0
  1 10  1  0
  2  9  1  0
  3  9  2  0
  4 10  2  0
  5  7  1  0
  6  7  1  0
  6  8  1  0
  7  9  1  0
 10 11  1  0
M  END
>  <PUBCHEM_COMPOUND_CID>  (1) 
528

>  <PUBCHEM_COMPOUND_CANONICALIZED>  (1) 
1

>  <PUBCHEM_CACTVS_COMPLEXITY>  (1) 
157

>  <PUBCHEM_CACTVS_HBOND_ACCEPTOR>  (1) 
5

>  <PUBCHEM_CACTVS_HBOND_DONOR>  (1) 
2

>  <PUBCHEM_CACTVS_ROTATABLE_BOND>  (1) 
5

>  <PUBCHEM_CACTVS_SUBSKEYS>  (1) 
AAADccBiOAAAAAAAAAAAAAAAAAAAAAAAAAAAAAAAAAAAAAAAAAAAHgAQCAAACCjhgAYCCABABgAIAACQCAAAAAAAAAAAAIGAAAACABAAAAACQAAGEAAAAABCAAAAAAAAAAAAAAAAAAAAAAAAAAAAAAAAAA==

>  <PUBCHEM_IUPAC_OPENEYE_NAME>  (1) 
4-acetoxy-2-amino-butanoic acid

>  <PUBCHEM_IUPAC_CAS_NAME>  (1) 
4-acetyloxy-2-aminobutanoic acid

>  <PUBCHEM_IUPAC_NAME_MARKUP>  (1) 
4-acetyloxy-2-aminobutanoic acid

>  <PUBCHEM_IUPAC_NAME>  (1) 
4-acetyloxy-2-aminobutanoic acid

>  <PUBCHEM_IUPAC_SYSTEMATIC_NAME>  (1) 
4-acetyloxy-2-azanyl-butanoic acid

>  <PUBCHEM_IUPAC_TRADITIONAL_NAME>  (1) 
4-acetoxy-2-amino-butyric acid

>  <PUBCHEM_IUPAC_INCHI>  (1) 
InChI=1S/C6H11NO4/c1-4(8)11-3-2-5(7)6(9)10/h5H,2-3,7H2,1H3,(H,9,10)

>  <PUBCHEM_IUPAC_INCHIKEY>  (1) 
FCXZBWSIAGGPCB-UHFFFAOYSA-N

>  <PUBCHEM_XLOGP3>  (1) 
-3.8

>  <PUBCHEM_EXACT_MASS>  (1) 
161.068808

>  <PUBCHEM_MOLECULAR_FORMULA>  (1) 
C6H11NO4

>  <PUBCHEM_MOLECULAR_WEIGHT>  (1) 
161.16

>  <PUBCHEM_OPENEYE_CAN_SMILES>  (1) 
CC(=O)OCCC(C(=O)O)N

>  <PUBCHEM_OPENEYE_ISO_SMILES>  (1) 
CC(=O)OCCC(C(=O)O)N

>  <PUBCHEM_CACTVS_TPSA>  (1) 
89.6

>  <PUBCHEM_MONOISOTOPIC_WEIGHT>  (1) 
161.068808

>  <PUBCHEM_TOTAL_CHARGE>  (1) 
0

>  <PUBCHEM_HEAVY_ATOM_COUNT>  (1) 
11

>  <PUBCHEM_ATOM_DEF_STEREO_COUNT>  (1) 
0

>  <PUBCHEM_ATOM_UDEF_STEREO_COUNT>  (1) 
1

>  <PUBCHEM_BOND_DEF_STEREO_COUNT>  (1) 
0

>  <PUBCHEM_BOND_UDEF_STEREO_COUNT>  (1) 
0

>  <PUBCHEM_ISOTOPIC_ATOM_COUNT>  (1) 
0

>  <PUBCHEM_COMPONENT_COUNT>  (1) 
1

>  <PUBCHEM_CACTVS_TAUTO_COUNT>  (1) 
-1

>  <PUBCHEM_COORDINATE_TYPE>  (1) 
1
5
255

>  <PUBCHEM_BONDANNOTATIONS>  (1) 
7  5  3

$$$$
