532
     RDKit          2D

 64 68  0  0  1  0  0  0  0  0999 V2000
    4.6816    5.6172    0.0000 O   0  0  0  0  0  0  0  0  0  0  0  0
    2.4071    6.8729    0.0000 O   0  0  0  0  0  0  0  0  0  0  0  0
   -0.0717    9.7074    0.0000 O   0  0  0  0  0  0  0  0  0  0  0  0
    7.8270    2.3932    0.0000 O   0  0  0  0  0  0  0  0  0  0  0  0
   -2.4245    8.6054    0.0000 O   0  0  0  0  0  0  0  0  0  0  0  0
    7.0716   -0.0927    0.0000 O   0  0  0  0  0  0  0  0  0  0  0  0
    9.3582   -2.2197    0.0000 O   0  0  0  0  0  0  0  0  0  0  0  0
    8.7695    0.3108    0.0000 O   0  0  0  0  0  0  0  0  0  0  0  0
   -6.8380    4.1625    0.0000 O   0  0  0  0  0  0  0  0  0  0  0  0
   -7.8491    1.7692    0.0000 O   0  0  0  0  0  0  0  0  0  0  0  0
   -4.0402   -7.3592    0.0000 O   0  0  0  0  0  0  0  0  0  0  0  0
  -10.4090   -0.9923    0.0000 O   0  0  0  0  0  0  0  0  0  0  0  0
   -3.8181   -4.7706    0.0000 O   0  0  0  0  0  0  0  0  0  0  0  0
   -9.0672   -3.2170    0.0000 O   0  0  0  0  0  0  0  0  0  0  0  0
    5.4571   -7.0205    0.0000 O   0  0  0  0  0  0  0  0  0  0  0  0
    3.3849   -8.5875    0.0000 O   0  0  0  0  0  0  0  0  0  0  0  0
   -0.2159    2.1218    0.0000 N   0  0  0  0  0  0  0  0  0  0  0  0
    3.1563    0.1493    0.0000 N   0  0  0  0  0  0  0  0  0  0  0  0
   -4.0174    0.0119    0.0000 N   0  0  0  0  0  0  0  0  0  0  0  0
   -0.3542   -3.9030    0.0000 N   0  0  0  0  0  0  0  0  0  0  0  0
    0.9572    4.2466    0.0000 C   0  0  0  0  0  0  0  0  0  0  0  0
    1.1425    2.7581    0.0000 C   0  0  0  0  0  0  0  0  0  0  0  0
   -0.5158    4.5303    0.0000 C   0  0  0  0  0  0  0  0  0  0  0  0
    2.6656    1.5668    0.0000 C   0  0  0  0  0  0  0  0  0  0  0  0
   -1.2407    3.2171    0.0000 C   0  0  0  0  0  0  0  0  0  0  0  0
    2.4569    4.2753    0.0000 C   0  0  0  0  0  0  0  0  0  0  0  0
    1.0854    5.7411    0.0000 C   0  0  0  0  0  0  0  0  0  0  0  0
    2.5921    2.3724    0.0000 C   0  0  0  0  0  0  0  0  0  0  0  0
   -1.1520    5.8887    0.0000 C   0  0  0  0  0  0  0  0  0  0  0  0
    4.3865   -0.7089    0.0000 C   0  0  0  0  0  0  0  0  0  0  0  0
    4.2012    0.7796    0.0000 C   0  0  0  0  0  0  0  0  0  0  0  0
    3.0281   -1.3452    0.0000 C   0  0  0  0  0  0  0  0  0  0  0  0
   -2.5991    2.5809    0.0000 C   0  0  0  0  0  0  0  0  0  0  0  0
    5.8475   -0.3690    0.0000 C   0  0  0  0  0  0  0  0  0  0  0  0
   -0.2937    7.1188    0.0000 C   0  0  0  0  0  0  0  0  0  0  0  0
    5.2965    1.8044    0.0000 C   0  0  0  0  0  0  0  0  0  0  0  0
    4.8773   -2.1264    0.0000 C   0  0  0  0  0  0  0  0  0  0  0  0
    3.1819    5.5884    0.0000 C   0  0  0  0  0  0  0  0  0  0  0  0
   -3.5813    1.4471    0.0000 C   0  0  0  0  0  0  0  0  0  0  0  0
   -5.0856    0.6017    0.0000 C   0  0  0  0  0  0  0  0  0  0  0  0
    2.3032   -2.6583    0.0000 C   0  0  0  0  0  0  0  0  0  0  0  0
   -5.2138   -0.8928    0.0000 C   0  0  0  0  0  0  0  0  0  0  0  0
    6.8724   -1.4643    0.0000 C   0  0  0  0  0  0  0  0  0  0  0  0
   -3.8321   -1.4766    0.0000 C   0  0  0  0  0  0  0  0  0  0  0  0
   -1.8272   -3.6193    0.0000 C   0  0  0  0  0  0  0  0  0  0  0  0
    1.1067   -3.5631    0.0000 C   0  0  0  0  0  0  0  0  0  0  0  0
   -3.0573   -2.7610    0.0000 C   0  0  0  0  0  0  0  0  0  0  0  0
   -5.2710    2.0902    0.0000 C   0  0  0  0  0  0  0  0  0  0  0  0
   -0.9299    8.4772    0.0000 C   0  0  0  0  0  0  0  0  0  0  0  0
    6.7317    1.3683    0.0000 C   0  0  0  0  0  0  0  0  0  0  0  0
   -6.5854    0.5730    0.0000 C   0  0  0  0  0  0  0  0  0  0  0  0
   -0.8291   -5.0270    0.0000 C   0  0  0  0  0  0  0  0  0  0  0  0
    0.6706   -4.9983    0.0000 C   0  0  0  0  0  0  0  0  0  0  0  0
   -6.4983   -1.6675    0.0000 C   0  0  0  0  0  0  0  0  0  0  0  0
   -2.4109   -5.0010    0.0000 C   0  0  0  0  0  0  0  0  0  0  0  0
    8.3334   -1.1244    0.0000 C   0  0  0  0  0  0  0  0  0  0  0  0
    1.5754   -6.1947    0.0000 C   0  0  0  0  0  0  0  0  0  0  0  0
   -1.6874   -6.2572    0.0000 C   0  0  0  0  0  0  0  0  0  0  0  0
   -6.6527    2.6740    0.0000 C   0  0  0  0  0  0  0  0  0  0  0  0
   -7.8114   -0.9426    0.0000 C   0  0  0  0  0  0  0  0  0  0  0  0
    3.0639   -6.0094    0.0000 C   0  0  0  0  0  0  0  0  0  0  0  0
   -3.1819   -6.1290    0.0000 C   0  0  0  0  0  0  0  0  0  0  0  0
   -9.0959   -1.7173    0.0000 C   0  0  0  0  0  0  0  0  0  0  0  0
    3.9686   -7.2058    0.0000 C   0  0  0  0  0  0  0  0  0  0  0  0
  1 38  1  0
  2 38  2  0
  3 49  1  0
  4 50  1  0
  5 49  2  0
  6 50  2  0
  7 56  1  0
  8 56  2  0
  9 59  1  0
 10 59  2  0
 11 62  1  0
 12 63  1  0
 13 62  2  0
 14 63  2  0
 15 64  1  0
 16 64  2  0
 17 22  1  0
 17 25  1  0
 18 24  1  0
 18 32  1  0
 19 39  2  0
 19 44  1  0
 20 45  1  0
 20 46  2  0
 21 22  1  0
 21 23  1  0
 21 26  1  0
 21 27  1  0
 22 24  1  0
 22 28  1  0
 23 25  1  0
 23 29  1  0
 24 31  2  0
 25 33  2  3
 26 38  1  0
 29 35  1  0
 30 31  1  0
 30 32  1  0
 30 34  1  0
 30 37  1  0
 31 36  1  0
 32 41  2  3
 33 39  1  0
 34 43  1  0
 35 49  1  0
 36 50  1  0
 39 40  1  0
 40 42  1  0
 40 48  1  0
 40 51  1  0
 41 46  1  0
 42 44  2  0
 42 54  1  0
 43 56  1  0
 44 47  1  0
 45 47  1  0
 45 52  1  0
 45 55  1  0
 46 53  1  0
 48 59  1  0
 52 53  2  0
 52 58  1  0
 53 57  1  0
 54 60  1  0
 57 61  1  0
 58 62  1  0
 60 63  1  0
 61 64  1  0
M  END
>  <PUBCHEM_COMPOUND_CID>  (1) 
532

>  <PUBCHEM_COMPOUND_CANONICALIZED>  (1) 
1

>  <PUBCHEM_CACTVS_COMPLEXITY>  (1) 
2350

>  <PUBCHEM_CACTVS_HBOND_ACCEPTOR>  (1) 
20

>  <PUBCHEM_CACTVS_HBOND_DONOR>  (1) 
10

>  <PUBCHEM_CACTVS_ROTATABLE_BOND>  (1) 
20

>  <PUBCHEM_CACTVS_SUBSKEYS>  (1) 
AAADcfB/vgAAAAAAAAAAAAAAAAAAAWIECAAAAAAAAAAAAAAAAAAAHgAQCAAAD4iBgAACCALAAgCoAyTyTACAAAAgAgAACAEwABgAQBIAwQAUQAAE0ACIAAO82XKPgAAAAAAAAAAAAAAAAAAAAAAAAAAAAA==

>  <PUBCHEM_IUPAC_OPENEYE_NAME>  (1) 
3-[8,13,17-tris(2-carboxyethyl)-2,7,12,18-tetrakis(carboxymethyl)-1,2,7,11,17-pentamethyl-3,10,21,24-tetrahydrocorrin-3-yl]propanoic acid

>  <PUBCHEM_IUPAC_CAS_NAME>  (1) 
3-[8,13,17-tris(2-carboxyethyl)-2,7,12,18-tetrakis(carboxymethyl)-1,2,7,11,17-pentamethyl-3,10,21,24-tetrahydrocorrin-3-yl]propanoic acid

>  <PUBCHEM_IUPAC_NAME_MARKUP>  (1) 
3-[8,13,17-tris(2-carboxyethyl)-2,7,12,18-tetrakis(carboxymethyl)-1,2,7,11,17-pentamethyl-3,10,21,24-tetrahydrocorrin-3-yl]propanoic acid

>  <PUBCHEM_IUPAC_NAME>  (1) 
3-[8,13,17-tris(2-carboxyethyl)-2,7,12,18-tetrakis(carboxymethyl)-1,2,7,11,17-pentamethyl-3,10,21,24-tetrahydrocorrin-3-yl]propanoic acid

>  <PUBCHEM_IUPAC_SYSTEMATIC_NAME>  (1) 
3-[2,7,12,18-tetrakis(2-hydroxy-2-oxoethyl)-8,13,17-tris(3-hydroxy-3-oxopropyl)-1,2,7,11,17-pentamethyl-3,10,21,24-tetrahydrocorrin-3-yl]propanoic acid

>  <PUBCHEM_IUPAC_TRADITIONAL_NAME>  (1) 
3-[8,13,17-tris(2-carboxyethyl)-2,7,12,18-tetrakis(carboxymethyl)-1,2,7,11,17-pentamethyl-3,10,21,24-tetrahydrocorrin-3-yl]propionic acid

>  <PUBCHEM_IUPAC_INCHI>  (1) 
InChI=1S/C44H54N4O16/c1-40(13-12-34(55)56)25(15-36(59)60)39-44(5)42(3,20-38(63)64)23(8-11-33(53)54)27(48-44)17-30-41(2,19-37(61)62)22(7-10-32(51)52)28(45-30)18-43(4)24(14-35(57)58)21(6-9-31(49)50)26(47-43)16-29(40)46-39/h16-17,23,46,48H,6-15,18-20H2,1-5H3,(H,49,50)(H,51,52)(H,53,54)(H,55,56)(H,57,58)(H,59,60)(H,61,62)(H,63,64)

>  <PUBCHEM_IUPAC_INCHIKEY>  (1) 
CJGNMYWHRHHNGH-UHFFFAOYSA-N

>  <PUBCHEM_XLOGP3_AA>  (1) 
-1.6

>  <PUBCHEM_EXACT_MASS>  (1) 
894.353482

>  <PUBCHEM_MOLECULAR_FORMULA>  (1) 
C44H54N4O16

>  <PUBCHEM_MOLECULAR_WEIGHT>  (1) 
894.9

>  <PUBCHEM_OPENEYE_CAN_SMILES>  (1) 
CC12CC3=C(C(C(=N3)C=C4C(C(C(N4)(C5=C(C(C(=CC(=N1)C(=C2CC(=O)O)CCC(=O)O)N5)(C)CCC(=O)O)CC(=O)O)C)(C)CC(=O)O)CCC(=O)O)(C)CC(=O)O)CCC(=O)O

>  <PUBCHEM_OPENEYE_ISO_SMILES>  (1) 
CC12CC3=C(C(C(=N3)C=C4C(C(C(N4)(C5=C(C(C(=CC(=N1)C(=C2CC(=O)O)CCC(=O)O)N5)(C)CCC(=O)O)CC(=O)O)C)(C)CC(=O)O)CCC(=O)O)(C)CC(=O)O)CCC(=O)O

>  <PUBCHEM_CACTVS_TPSA>  (1) 
347

>  <PUBCHEM_MONOISOTOPIC_WEIGHT>  (1) 
894.353482

>  <PUBCHEM_TOTAL_CHARGE>  (1) 
0

>  <PUBCHEM_HEAVY_ATOM_COUNT>  (1) 
64

>  <PUBCHEM_ATOM_DEF_STEREO_COUNT>  (1) 
0

>  <PUBCHEM_ATOM_UDEF_STEREO_COUNT>  (1) 
6

>  <PUBCHEM_BOND_DEF_STEREO_COUNT>  (1) 
0

>  <PUBCHEM_BOND_UDEF_STEREO_COUNT>  (1) 
2

>  <PUBCHEM_ISOTOPIC_ATOM_COUNT>  (1) 
0

>  <PUBCHEM_COMPONENT_COUNT>  (1) 
1

>  <PUBCHEM_CACTVS_TAUTO_COUNT>  (1) 
-1

>  <PUBCHEM_COORDINATE_TYPE>  (1) 
1
5
255

>  <PUBCHEM_BONDANNOTATIONS>  (1) 
21  27  3
22  28  3
23  29  3
25  33  1
30  37  3
32  41  1
40  51  3
45  55  3

$$$$
