534
     RDKit          2D

 64 68  0  0  1  0  0  0  0  0999 V2000
    5.3650    5.0527    0.0000 O   0  0  0  0  0  0  0  0  0  0  0  0
    3.2445    6.5540    0.0000 O   0  0  0  0  0  0  0  0  0  0  0  0
    8.1317    1.4984    0.0000 O   0  0  0  0  0  0  0  0  0  0  0  0
    7.1041   -0.8878    0.0000 O   0  0  0  0  0  0  0  0  0  0  0  0
    1.0968    9.6469    0.0000 O   0  0  0  0  0  0  0  0  0  0  0  0
    9.1396   -3.2563    0.0000 O   0  0  0  0  0  0  0  0  0  0  0  0
   -1.3641    8.8139    0.0000 O   0  0  0  0  0  0  0  0  0  0  0  0
    8.8364   -0.6760    0.0000 O   0  0  0  0  0  0  0  0  0  0  0  0
   -6.2450    4.8901    0.0000 O   0  0  0  0  0  0  0  0  0  0  0  0
   -7.5164    2.6244    0.0000 O   0  0  0  0  0  0  0  0  0  0  0  0
   -5.2531   -6.8246    0.0000 O   0  0  0  0  0  0  0  0  0  0  0  0
   -4.7441   -4.2769    0.0000 O   0  0  0  0  0  0  0  0  0  0  0  0
  -10.3680    0.1652    0.0000 O   0  0  0  0  0  0  0  0  0  0  0  0
    4.2229   -7.5458    0.0000 O   0  0  0  0  0  0  0  0  0  0  0  0
   -9.2822   -2.1951    0.0000 O   0  0  0  0  0  0  0  0  0  0  0  0
    1.9889   -8.8723    0.0000 O   0  0  0  0  0  0  0  0  0  0  0  0
    0.1086    2.1246    0.0000 N   0  0  0  0  0  0  0  0  0  0  0  0
    3.2402   -0.2112    0.0000 N   0  0  0  0  0  0  0  0  0  0  0  0
   -3.9043    0.4513    0.0000 N   0  0  0  0  0  0  0  0  0  0  0  0
   -0.6999   -3.8473    0.0000 N   0  0  0  0  0  0  0  0  0  0  0  0
    1.5294    2.6056    0.0000 C   0  0  0  0  0  0  0  0  0  0  0  0
    1.5110    4.1055    0.0000 C   0  0  0  0  0  0  0  0  0  0  0  0
    2.9103    1.2521    0.0000 C   0  0  0  0  0  0  0  0  0  0  0  0
    4.3487    0.2987    0.0000 C   0  0  0  0  0  0  0  0  0  0  0  0
    0.0789    4.5515    0.0000 C   0  0  0  0  0  0  0  0  0  0  0  0
    4.3671   -1.2012    0.0000 C   0  0  0  0  0  0  0  0  0  0  0  0
   -0.7879    3.3272    0.0000 C   0  0  0  0  0  0  0  0  0  0  0  0
    2.9270    2.0608    0.0000 C   0  0  0  0  0  0  0  0  0  0  0  0
    3.0046    3.9670    0.0000 C   0  0  0  0  0  0  0  0  0  0  0  0
    2.9463   -1.6821    0.0000 C   0  0  0  0  0  0  0  0  0  0  0  0
    1.8049    5.5764    0.0000 C   0  0  0  0  0  0  0  0  0  0  0  0
    5.5514    1.1952    0.0000 C   0  0  0  0  0  0  0  0  0  0  0  0
   -0.4021    5.9723    0.0000 C   0  0  0  0  0  0  0  0  0  0  0  0
    5.8569   -1.0261    0.0000 C   0  0  0  0  0  0  0  0  0  0  0  0
    4.6969   -2.6644    0.0000 C   0  0  0  0  0  0  0  0  0  0  0  0
   -2.2087    2.8463    0.0000 C   0  0  0  0  0  0  0  0  0  0  0  0
    2.0796   -2.9064    0.0000 C   0  0  0  0  0  0  0  0  0  0  0  0
    0.5879    7.0992    0.0000 C   0  0  0  0  0  0  0  0  0  0  0  0
    3.8714    5.1912    0.0000 C   0  0  0  0  0  0  0  0  0  0  0  0
    6.7533   -2.2287    0.0000 C   0  0  0  0  0  0  0  0  0  0  0  0
    6.9290    0.6020    0.0000 C   0  0  0  0  0  0  0  0  0  0  0  0
   -3.3110    1.8290    0.0000 C   0  0  0  0  0  0  0  0  0  0  0  0
   -4.9001    1.1564    0.0000 C   0  0  0  0  0  0  0  0  0  0  0  0
    0.7898   -3.6722    0.0000 C   0  0  0  0  0  0  0  0  0  0  0  0
   -2.1321   -3.4013    0.0000 C   0  0  0  0  0  0  0  0  0  0  0  0
   -5.1940   -0.3146    0.0000 C   0  0  0  0  0  0  0  0  0  0  0  0
   -3.8859   -1.0486    0.0000 C   0  0  0  0  0  0  0  0  0  0  0  0
    0.1069    8.5200    0.0000 C   0  0  0  0  0  0  0  0  0  0  0  0
   -0.3087   -5.0031    0.0000 C   0  0  0  0  0  0  0  0  0  0  0  0
    8.2431   -2.0536    0.0000 C   0  0  0  0  0  0  0  0  0  0  0  0
   -3.2590   -2.4113    0.0000 C   0  0  0  0  0  0  0  0  0  0  0  0
   -1.8022   -4.8646    0.0000 C   0  0  0  0  0  0  0  0  0  0  0  0
   -4.9185    2.6562    0.0000 C   0  0  0  0  0  0  0  0  0  0  0  0
   -6.3937    1.2948    0.0000 C   0  0  0  0  0  0  0  0  0  0  0  0
   -6.5567   -0.9414    0.0000 C   0  0  0  0  0  0  0  0  0  0  0  0
   -2.8661   -4.7094    0.0000 C   0  0  0  0  0  0  0  0  0  0  0  0
    0.4572   -6.2928    0.0000 C   0  0  0  0  0  0  0  0  0  0  0  0
   -2.7922   -5.9915    0.0000 C   0  0  0  0  0  0  0  0  0  0  0  0
   -6.2267    3.3903    0.0000 C   0  0  0  0  0  0  0  0  0  0  0  0
   -7.7810   -0.0747    0.0000 C   0  0  0  0  0  0  0  0  0  0  0  0
    1.9571   -6.2744    0.0000 C   0  0  0  0  0  0  0  0  0  0  0  0
   -4.2631   -5.6977    0.0000 C   0  0  0  0  0  0  0  0  0  0  0  0
   -9.1437   -0.7016    0.0000 C   0  0  0  0  0  0  0  0  0  0  0  0
    2.7230   -7.5642    0.0000 C   0  0  0  0  0  0  0  0  0  0  0  0
  1 39  1  0
  2 39  2  0
  3 41  1  0
  4 41  2  0
  5 48  1  0
  6 50  1  0
  7 48  2  0
  8 50  2  0
  9 59  1  0
 10 59  2  0
 11 62  1  0
 12 62  2  0
 13 63  1  0
 14 64  1  0
 15 63  2  0
 16 64  2  0
 17 21  1  0
 17 27  1  0
 18 23  1  0
 18 30  1  0
 19 42  2  0
 19 47  1  0
 20 44  2  0
 20 45  1  0
 21 22  1  0
 21 23  1  0
 21 28  1  0
 22 25  1  0
 22 29  1  0
 22 31  1  0
 23 24  1  0
 24 26  1  0
 24 32  1  0
 25 27  1  0
 25 33  1  0
 26 30  1  0
 26 34  1  0
 26 35  1  0
 27 36  2  3
 29 39  1  0
 30 37  2  3
 32 41  1  0
 33 38  1  0
 34 40  1  0
 36 42  1  0
 37 44  1  0
 38 48  1  0
 40 50  1  0
 42 43  1  0
 43 46  1  0
 43 53  1  0
 43 54  1  0
 44 49  1  0
 45 51  1  0
 45 52  1  0
 45 56  1  0
 46 47  2  0
 46 55  1  0
 47 51  1  0
 49 52  2  0
 49 57  1  0
 52 58  1  0
 53 59  1  0
 55 60  1  0
 57 61  1  0
 58 62  1  0
 60 63  1  0
 61 64  1  0
M  END
>  <PUBCHEM_COMPOUND_CID>  (1) 
534

>  <PUBCHEM_COMPOUND_CANONICALIZED>  (1) 
1

>  <PUBCHEM_CACTVS_COMPLEXITY>  (1) 
2270

>  <PUBCHEM_CACTVS_HBOND_ACCEPTOR>  (1) 
20

>  <PUBCHEM_CACTVS_HBOND_DONOR>  (1) 
10

>  <PUBCHEM_CACTVS_ROTATABLE_BOND>  (1) 
20

>  <PUBCHEM_CACTVS_SUBSKEYS>  (1) 
AAADcfB/vgAAAAAAAAAAAAAAAAAAAWLECAAAAAAAAAAAAAAAAAAAHgAQCAAAD6jBgAQCCALAAgCoAyTyTACAAAAgAgAACIE4ABgAQBIAwQAUQAAE0ACIAAO82fOfgAAAAAAAAAAAAAAAAAAAAAAAAAAAAA==

>  <PUBCHEM_IUPAC_OPENEYE_NAME>  (1) 
3-[8,13,17-tris(2-carboxyethyl)-2,7,12,18-tetrakis(carboxymethyl)-1,2,7,11,17-pentamethyl-3,10,18,19,21,24-hexahydrocorrin-3-yl]propanoic acid

>  <PUBCHEM_IUPAC_CAS_NAME>  (1) 
3-[8,13,17-tris(2-carboxyethyl)-2,7,12,18-tetrakis(carboxymethyl)-1,2,7,11,17-pentamethyl-3,10,18,19,21,24-hexahydrocorrin-3-yl]propanoic acid

>  <PUBCHEM_IUPAC_NAME_MARKUP>  (1) 
3-[8,13,17-tris(2-carboxyethyl)-2,7,12,18-tetrakis(carboxymethyl)-1,2,7,11,17-pentamethyl-3,10,18,19,21,24-hexahydrocorrin-3-yl]propanoic acid

>  <PUBCHEM_IUPAC_NAME>  (1) 
3-[8,13,17-tris(2-carboxyethyl)-2,7,12,18-tetrakis(carboxymethyl)-1,2,7,11,17-pentamethyl-3,10,18,19,21,24-hexahydrocorrin-3-yl]propanoic acid

>  <PUBCHEM_IUPAC_SYSTEMATIC_NAME>  (1) 
3-[2,7,12,18-tetrakis(2-hydroxy-2-oxoethyl)-8,13,17-tris(3-hydroxy-3-oxopropyl)-1,2,7,11,17-pentamethyl-3,10,18,19,21,24-hexahydrocorrin-3-yl]propanoic acid

>  <PUBCHEM_IUPAC_TRADITIONAL_NAME>  (1) 
3-[8,13,17-tris(2-carboxyethyl)-2,7,12,18-tetrakis(carboxymethyl)-1,2,7,11,17-pentamethyl-3,10,18,19,21,24-hexahydrocorrin-3-yl]propionic acid

>  <PUBCHEM_IUPAC_INCHI>  (1) 
InChI=1S/C44H56N4O16/c1-40(13-12-34(55)56)25(15-36(59)60)39-44(5)42(3,20-38(63)64)23(8-11-33(53)54)27(48-44)17-30-41(2,19-37(61)62)22(7-10-32(51)52)28(45-30)18-43(4)24(14-35(57)58)21(6-9-31(49)50)26(47-43)16-29(40)46-39/h16-17,23,25,39,46,48H,6-15,18-20H2,1-5H3,(H,49,50)(H,51,52)(H,53,54)(H,55,56)(H,57,58)(H,59,60)(H,61,62)(H,63,64)

>  <PUBCHEM_IUPAC_INCHIKEY>  (1) 
UZVGLSZJXWVSGT-UHFFFAOYSA-N

>  <PUBCHEM_XLOGP3_AA>  (1) 
-0.9

>  <PUBCHEM_EXACT_MASS>  (1) 
896.369132

>  <PUBCHEM_MOLECULAR_FORMULA>  (1) 
C44H56N4O16

>  <PUBCHEM_MOLECULAR_WEIGHT>  (1) 
896.9

>  <PUBCHEM_OPENEYE_CAN_SMILES>  (1) 
CC12CC3=C(C(C(=N3)C=C4C(C(C(N4)(C5C(C(C(=CC(=N1)C(=C2CC(=O)O)CCC(=O)O)N5)(C)CCC(=O)O)CC(=O)O)C)(C)CC(=O)O)CCC(=O)O)(C)CC(=O)O)CCC(=O)O

>  <PUBCHEM_OPENEYE_ISO_SMILES>  (1) 
CC12CC3=C(C(C(=N3)C=C4C(C(C(N4)(C5C(C(C(=CC(=N1)C(=C2CC(=O)O)CCC(=O)O)N5)(C)CCC(=O)O)CC(=O)O)C)(C)CC(=O)O)CCC(=O)O)(C)CC(=O)O)CCC(=O)O

>  <PUBCHEM_CACTVS_TPSA>  (1) 
347

>  <PUBCHEM_MONOISOTOPIC_WEIGHT>  (1) 
896.369132

>  <PUBCHEM_TOTAL_CHARGE>  (1) 
0

>  <PUBCHEM_HEAVY_ATOM_COUNT>  (1) 
64

>  <PUBCHEM_ATOM_DEF_STEREO_COUNT>  (1) 
0

>  <PUBCHEM_ATOM_UDEF_STEREO_COUNT>  (1) 
8

>  <PUBCHEM_BOND_DEF_STEREO_COUNT>  (1) 
0

>  <PUBCHEM_BOND_UDEF_STEREO_COUNT>  (1) 
2

>  <PUBCHEM_ISOTOPIC_ATOM_COUNT>  (1) 
0

>  <PUBCHEM_COMPONENT_COUNT>  (1) 
1

>  <PUBCHEM_CACTVS_TAUTO_COUNT>  (1) 
-1

>  <PUBCHEM_COORDINATE_TYPE>  (1) 
1
5
255

>  <PUBCHEM_BONDANNOTATIONS>  (1) 
23  18  3
21  28  3
22  31  3
24  32  3
25  33  3
26  35  3
27  36  1
30  37  1
43  54  3
45  56  3

$$$$
