54
     RDKit          2D

 54 56  0  0  1  0  0  0  0  0999 V2000
  -14.5676   -0.4950    0.0000 S   0  0  0  0  0  0  0  0  0  0  0  0
    3.9007   -1.7667    0.0000 P   0  0  0  0  0  0  0  0  0  0  0  0
    3.4799    3.2521    0.0000 P   0  0  0  0  0  0  0  0  0  0  0  0
    0.8840    3.1450    0.0000 P   0  0  0  0  0  0  0  0  0  0  0  0
    7.5434    1.0279    0.0000 O   0  0  0  0  0  0  0  0  0  0  0  0
    5.3451   -2.1711    0.0000 O   0  0  0  0  0  0  0  0  0  0  0  0
    8.5624   -2.7174    0.0000 O   0  0  0  0  0  0  0  0  0  0  0  0
    4.8087    2.5563    0.0000 O   0  0  0  0  0  0  0  0  0  0  0  0
    4.3050   -0.3223    0.0000 O   0  0  0  0  0  0  0  0  0  0  0  0
    2.4562   -1.3624    0.0000 O   0  0  0  0  0  0  0  0  0  0  0  0
    2.1510    3.9480    0.0000 O   0  0  0  0  0  0  0  0  0  0  0  0
   -0.3830    2.3421    0.0000 O   0  0  0  0  0  0  0  0  0  0  0  0
    3.4963   -3.2112    0.0000 O   0  0  0  0  0  0  0  0  0  0  0  0
    4.1757    4.5810    0.0000 O   0  0  0  0  0  0  0  0  0  0  0  0
   -2.7934   -2.2611    0.0000 O   0  0  0  0  0  0  0  0  0  0  0  0
    2.7840    1.9233    0.0000 O   0  0  0  0  0  0  0  0  0  0  0  0
    1.6869    1.8780    0.0000 O   0  0  0  0  0  0  0  0  0  0  0  0
    0.0811    4.4121    0.0000 O   0  0  0  0  0  0  0  0  0  0  0  0
   -4.2459    1.4321    0.0000 O   0  0  0  0  0  0  0  0  0  0  0  0
   -9.4377    1.2179    0.0000 O   0  0  0  0  0  0  0  0  0  0  0  0
  -15.7728   -2.7966    0.0000 O   0  0  0  0  0  0  0  0  0  0  0  0
   10.0762    0.1736    0.0000 N   0  0  0  0  0  0  0  0  0  0  0  0
   12.2509    1.2513    0.0000 N   0  0  0  0  0  0  0  0  0  0  0  0
   11.0299   -2.3958    0.0000 N   0  0  0  0  0  0  0  0  0  0  0  0
   13.6227   -2.5606    0.0000 N   0  0  0  0  0  0  0  0  0  0  0  0
   15.0619   -0.3976    0.0000 N   0  0  0  0  0  0  0  0  0  0  0  0
   -5.4511   -0.8695    0.0000 N   0  0  0  0  0  0  0  0  0  0  0  0
  -10.6428   -1.0837    0.0000 N   0  0  0  0  0  0  0  0  0  0  0  0
    6.4175   -1.1223    0.0000 C   0  0  0  0  0  0  0  0  0  0  0  0
    7.8964   -1.3734    0.0000 C   0  0  0  0  0  0  0  0  0  0  0  0
    6.1994    0.3618    0.0000 C   0  0  0  0  0  0  0  0  0  0  0  0
    8.5922   -0.0445    0.0000 C   0  0  0  0  0  0  0  0  0  0  0  0
    4.8705    1.0576    0.0000 C   0  0  0  0  0  0  0  0  0  0  0  0
   11.1250   -0.8988    0.0000 C   0  0  0  0  0  0  0  0  0  0  0  0
   10.7720    1.5025    0.0000 C   0  0  0  0  0  0  0  0  0  0  0  0
   12.4690   -0.2327    0.0000 C   0  0  0  0  0  0  0  0  0  0  0  0
   -1.5882    0.0405    0.0000 C   0  0  0  0  0  0  0  0  0  0  0  0
   -2.8552   -0.7624    0.0000 C   0  0  0  0  0  0  0  0  0  0  0  0
   -0.3212    0.8434    0.0000 C   0  0  0  0  0  0  0  0  0  0  0  0
   13.7179   -1.0636    0.0000 C   0  0  0  0  0  0  0  0  0  0  0  0
   -2.3911    1.3075    0.0000 C   0  0  0  0  0  0  0  0  0  0  0  0
   -0.7853   -1.2265    0.0000 C   0  0  0  0  0  0  0  0  0  0  0  0
   12.2787   -3.2267    0.0000 C   0  0  0  0  0  0  0  0  0  0  0  0
   -4.1841   -0.0666    0.0000 C   0  0  0  0  0  0  0  0  0  0  0  0
   -6.7800   -0.1737    0.0000 C   0  0  0  0  0  0  0  0  0  0  0  0
   -8.0470   -0.9766    0.0000 C   0  0  0  0  0  0  0  0  0  0  0  0
   -9.3758   -0.2808    0.0000 C   0  0  0  0  0  0  0  0  0  0  0  0
  -11.9717   -0.3879    0.0000 C   0  0  0  0  0  0  0  0  0  0  0  0
  -17.1634   -0.6021    0.0000 C   0  0  0  0  0  0  0  0  0  0  0  0
  -13.2387   -1.1908    0.0000 C   0  0  0  0  0  0  0  0  0  0  0  0
  -17.2253    0.8967    0.0000 C   0  0  0  0  0  0  0  0  0  0  0  0
  -15.8346   -1.2979    0.0000 C   0  0  0  0  0  0  0  0  0  0  0  0
  -18.4304   -1.4050    0.0000 C   0  0  0  0  0  0  0  0  0  0  0  0
  -18.5541    1.5925    0.0000 C   0  0  0  0  0  0  0  0  0  0  0  0
  1 50  1  0
  1 52  1  0
  2  6  1  0
  2  9  1  0
  2 10  1  0
  2 13  2  0
  3  8  1  0
  3 11  1  0
  3 14  1  0
  3 16  2  0
  4 11  1  0
  4 12  1  0
  4 17  1  0
  4 18  2  0
  5 31  1  0
  5 32  1  0
  6 29  1  0
  7 30  1  0
  8 33  1  0
 12 39  1  0
 15 38  1  0
 19 44  2  0
 20 47  2  0
 21 52  2  0
 22 32  1  0
 22 34  1  0
 22 35  1  0
 23 35  2  0
 23 36  1  0
 24 34  1  0
 24 43  2  0
 25 40  2  0
 25 43  1  0
 26 40  1  0
 27 44  1  0
 27 45  1  0
 28 47  1  0
 28 48  1  0
 29 30  1  0
 29 31  1  0
 30 32  1  0
 31 33  1  0
 34 36  2  0
 36 40  1  0
 37 38  1  0
 37 39  1  0
 37 41  1  0
 37 42  1  0
 38 44  1  0
 45 46  1  0
 46 47  1  0
 48 50  1  0
 49 51  1  0
 49 52  1  0
 49 53  1  0
 51 54  1  0
M  END
>  <PUBCHEM_COMPOUND_CID>  (1) 
54

>  <PUBCHEM_COMPOUND_CANONICALIZED>  (1) 
1

>  <PUBCHEM_CACTVS_COMPLEXITY>  (1) 
1450

>  <PUBCHEM_CACTVS_HBOND_ACCEPTOR>  (1) 
22

>  <PUBCHEM_CACTVS_HBOND_DONOR>  (1) 
9

>  <PUBCHEM_CACTVS_ROTATABLE_BOND>  (1) 
22

>  <PUBCHEM_CACTVS_SUBSKEYS>  (1) 
AAADcfB7vgNAAAAAAAAAAAAAAAAAAWJAAAAsAAAAAAAAAFgB+AAAHgQQCCAADxzl1waH8L/MFxioQQdxdIKAgC0RELABUKFoVBCDWBpgyEAeRAgPFgLzACDyMAIJAAAAAAAAAAAAAAAAAAAAAAAAAAAAAA==

>  <PUBCHEM_IUPAC_OPENEYE_NAME>  (1) 
S-[2-[3-[[4-[[[5-(6-aminopurin-9-yl)-4-hydroxy-3-phosphonooxy-tetrahydrofuran-2-yl]methoxy-hydroxy-phosphoryl]oxy-hydroxy-phosphoryl]oxy-2-hydroxy-3,3-dimethyl-butanoyl]amino]propanoylamino]ethyl] 2-methylbutanethioate

>  <PUBCHEM_IUPAC_CAS_NAME>  (1) 
2-methylbutanethioic acid S-[2-[[3-[[4-[[[5-(6-aminopurin-9-yl)-4-hydroxy-3-phosphonooxy-2-oxolanyl]methoxy-hydroxyphosphoryl]oxy-hydroxyphosphoryl]oxy-2-hydroxy-3,3-dimethyl-1-oxobutyl]amino]-1-oxopropyl]amino]ethyl] ester

>  <PUBCHEM_IUPAC_NAME_MARKUP>  (1) 
<I>S</I>-[2-[3-[[4-[[[5-(6-aminopurin-9-yl)-4-hydroxy-3-phosphonooxyoxolan-2-yl]methoxy-hydroxyphosphoryl]oxy-hydroxyphosphoryl]oxy-2-hydroxy-3,3-dimethylbutanoyl]amino]propanoylamino]ethyl] 2-methylbutanethioate

>  <PUBCHEM_IUPAC_NAME>  (1) 
S-[2-[3-[[4-[[[5-(6-aminopurin-9-yl)-4-hydroxy-3-phosphonooxyoxolan-2-yl]methoxy-hydroxyphosphoryl]oxy-hydroxyphosphoryl]oxy-2-hydroxy-3,3-dimethylbutanoyl]amino]propanoylamino]ethyl] 2-methylbutanethioate

>  <PUBCHEM_IUPAC_SYSTEMATIC_NAME>  (1) 
S-[2-[3-[[4-[[[5-(6-aminopurin-9-yl)-4-oxidanyl-3-phosphonooxy-oxolan-2-yl]methoxy-oxidanyl-phosphoryl]oxy-oxidanyl-phosphoryl]oxy-3,3-dimethyl-2-oxidanyl-butanoyl]amino]propanoylamino]ethyl] 2-methylbutanethioate

>  <PUBCHEM_IUPAC_TRADITIONAL_NAME>  (1) 
2-methylbutanethioic acid S-[2-[3-[[4-[[(5-adenin-9-yl-4-hydroxy-3-phosphonooxy-tetrahydrofuran-2-yl)methoxy-hydroxy-phosphoryl]oxy-hydroxy-phosphoryl]oxy-2-hydroxy-3,3-dimethyl-butanoyl]amino]propanoylamino]ethyl] ester

>  <PUBCHEM_IUPAC_INCHI>  (1) 
InChI=1S/C26H44N7O17P3S/c1-5-14(2)25(38)54-9-8-28-16(34)6-7-29-23(37)20(36)26(3,4)11-47-53(44,45)50-52(42,43)46-10-15-19(49-51(39,40)41)18(35)24(48-15)33-13-32-17-21(27)30-12-31-22(17)33/h12-15,18-20,24,35-36H,5-11H2,1-4H3,(H,28,34)(H,29,37)(H,42,43)(H,44,45)(H2,27,30,31)(H2,39,40,41)

>  <PUBCHEM_IUPAC_INCHIKEY>  (1) 
LYNVNYDEQMMNMZ-UHFFFAOYSA-N

>  <PUBCHEM_XLOGP3_AA>  (1) 
-4.2

>  <PUBCHEM_EXACT_MASS>  (1) 
851.172725

>  <PUBCHEM_MOLECULAR_FORMULA>  (1) 
C26H44N7O17P3S

>  <PUBCHEM_MOLECULAR_WEIGHT>  (1) 
851.7

>  <PUBCHEM_OPENEYE_CAN_SMILES>  (1) 
CCC(C)C(=O)SCCNC(=O)CCNC(=O)C(C(C)(C)COP(=O)(O)OP(=O)(O)OCC1C(C(C(O1)N2C=NC3=C(N=CN=C32)N)O)OP(=O)(O)O)O

>  <PUBCHEM_OPENEYE_ISO_SMILES>  (1) 
CCC(C)C(=O)SCCNC(=O)CCNC(=O)C(C(C)(C)COP(=O)(O)OP(=O)(O)OCC1C(C(C(O1)N2C=NC3=C(N=CN=C32)N)O)OP(=O)(O)O)O

>  <PUBCHEM_CACTVS_TPSA>  (1) 
389

>  <PUBCHEM_MONOISOTOPIC_WEIGHT>  (1) 
851.172725

>  <PUBCHEM_TOTAL_CHARGE>  (1) 
0

>  <PUBCHEM_HEAVY_ATOM_COUNT>  (1) 
54

>  <PUBCHEM_ATOM_DEF_STEREO_COUNT>  (1) 
0

>  <PUBCHEM_ATOM_UDEF_STEREO_COUNT>  (1) 
6

>  <PUBCHEM_BOND_DEF_STEREO_COUNT>  (1) 
0

>  <PUBCHEM_BOND_UDEF_STEREO_COUNT>  (1) 
0

>  <PUBCHEM_ISOTOPIC_ATOM_COUNT>  (1) 
0

>  <PUBCHEM_COMPONENT_COUNT>  (1) 
1

>  <PUBCHEM_CACTVS_TAUTO_COUNT>  (1) 
-1

>  <PUBCHEM_COORDINATE_TYPE>  (1) 
1
5
255

>  <PUBCHEM_BONDANNOTATIONS>  (1) 
38  15  3
32  22  3
22  34  8
22  35  8
23  35  8
23  36  8
24  34  8
24  43  8
25  40  8
25  43  8
31  33  3
34  36  8
36  40  8
49  53  3
29  6  3
30  7  3

$$$$
