543
     RDKit          2D

 13 13  0  0  1  0  0  0  0  0999 V2000
   -1.6183   -0.5051    0.0000 O   0  0  0  0  0  0  0  0  0  0  0  0
   -1.4222   -2.5979    0.0000 O   0  0  0  0  0  0  0  0  0  0  0  0
    1.1758   -2.5938    0.0000 O   0  0  0  0  0  0  0  0  0  0  0  0
    3.7370    0.5603    0.0000 O   0  0  0  0  0  0  0  0  0  0  0  0
   -3.6984    1.1738    0.0000 O   0  0  0  0  0  0  0  0  0  0  0  0
    1.6326    2.0840    0.0000 O   0  0  0  0  0  0  0  0  0  0  0  0
   -0.1268   -0.3459    0.0000 C   0  0  0  0  0  0  0  0  0  0  0  0
    1.3652   -0.5002    0.0000 C   0  0  0  0  0  0  0  0  0  0  0  0
    0.1827    1.1219    0.0000 C   0  0  0  0  0  0  0  0  0  0  0  0
   -0.1244   -1.8459    0.0000 C   0  0  0  0  0  0  0  0  0  0  0  0
   -1.1175    1.8698    0.0000 C   0  0  0  0  0  0  0  0  0  0  0  0
   -2.2306    0.8643    0.0000 C   0  0  0  0  0  0  0  0  0  0  0  0
    2.2449    0.7147    0.0000 C   0  0  0  0  0  0  0  0  0  0  0  0
  1  7  1  0
  1 12  1  0
  2 10  1  0
  3 10  2  0
  4 13  1  0
  5 12  2  0
  6 13  2  0
  7  8  1  0
  7  9  1  0
  7 10  1  0
  8 13  1  0
  9 11  2  0
 11 12  1  0
M  END
>  <PUBCHEM_COMPOUND_CID>  (1) 
543

>  <PUBCHEM_COMPOUND_CANONICALIZED>  (1) 
1

>  <PUBCHEM_CACTVS_COMPLEXITY>  (1) 
304

>  <PUBCHEM_CACTVS_HBOND_ACCEPTOR>  (1) 
6

>  <PUBCHEM_CACTVS_HBOND_DONOR>  (1) 
2

>  <PUBCHEM_CACTVS_ROTATABLE_BOND>  (1) 
3

>  <PUBCHEM_CACTVS_SUBSKEYS>  (1) 
AAADcYBgOAAAAAAAAAAAAAAAAAAAAQAAAAAAAAAAAAAAAAAAAAAAGgAACAAADESAgAAACAAABgCIACDSCAIAAAAgAAAICAFAAEgBBBQAIAQCUAAF4AALIYJDAAAIAAAAAAAAAAAAAAAAAAAAAAAAAAAAAA==

>  <PUBCHEM_IUPAC_OPENEYE_NAME>  (1) 
2-(carboxymethyl)-5-oxo-furan-2-carboxylic acid

>  <PUBCHEM_IUPAC_CAS_NAME>  (1) 
2-(carboxymethyl)-5-oxo-2-furancarboxylic acid

>  <PUBCHEM_IUPAC_NAME_MARKUP>  (1) 
2-(carboxymethyl)-5-oxofuran-2-carboxylic acid

>  <PUBCHEM_IUPAC_NAME>  (1) 
2-(carboxymethyl)-5-oxofuran-2-carboxylic acid

>  <PUBCHEM_IUPAC_SYSTEMATIC_NAME>  (1) 
2-(2-hydroxy-2-oxoethyl)-5-oxidanylidene-furan-2-carboxylic acid

>  <PUBCHEM_IUPAC_TRADITIONAL_NAME>  (1) 
2-(carboxymethyl)-5-keto-2-furoic acid

>  <PUBCHEM_IUPAC_INCHI>  (1) 
InChI=1S/C7H6O6/c8-4(9)3-7(6(11)12)2-1-5(10)13-7/h1-2H,3H2,(H,8,9)(H,11,12)

>  <PUBCHEM_IUPAC_INCHIKEY>  (1) 
DHCUIDTZCMREHG-UHFFFAOYSA-N

>  <PUBCHEM_XLOGP3_AA>  (1) 
-0.7

>  <PUBCHEM_EXACT_MASS>  (1) 
186.016438

>  <PUBCHEM_MOLECULAR_FORMULA>  (1) 
C7H6O6

>  <PUBCHEM_MOLECULAR_WEIGHT>  (1) 
186.12

>  <PUBCHEM_OPENEYE_CAN_SMILES>  (1) 
C1=CC(OC1=O)(CC(=O)O)C(=O)O

>  <PUBCHEM_OPENEYE_ISO_SMILES>  (1) 
C1=CC(OC1=O)(CC(=O)O)C(=O)O

>  <PUBCHEM_CACTVS_TPSA>  (1) 
101

>  <PUBCHEM_MONOISOTOPIC_WEIGHT>  (1) 
186.016438

>  <PUBCHEM_TOTAL_CHARGE>  (1) 
0

>  <PUBCHEM_HEAVY_ATOM_COUNT>  (1) 
13

>  <PUBCHEM_ATOM_DEF_STEREO_COUNT>  (1) 
0

>  <PUBCHEM_ATOM_UDEF_STEREO_COUNT>  (1) 
1

>  <PUBCHEM_BOND_DEF_STEREO_COUNT>  (1) 
0

>  <PUBCHEM_BOND_UDEF_STEREO_COUNT>  (1) 
0

>  <PUBCHEM_ISOTOPIC_ATOM_COUNT>  (1) 
0

>  <PUBCHEM_COMPONENT_COUNT>  (1) 
1

>  <PUBCHEM_CACTVS_TAUTO_COUNT>  (1) 
-1

>  <PUBCHEM_COORDINATE_TYPE>  (1) 
1
5
255

>  <PUBCHEM_BONDANNOTATIONS>  (1) 
7  8  3

$$$$
