546
     RDKit          2D

  8  7  0  0  0  0  0  0  0  0999 V2000
   -1.1374   -0.0849    0.0000 P   0  0  0  0  0  0  0  0  0  0  0  0
   -1.8975   -1.3780    0.0000 O   0  0  0  0  0  0  0  0  0  0  0  0
   -0.3772    1.2083    0.0000 O   0  0  0  0  0  0  0  0  0  0  0  0
   -2.4305    0.6752    0.0000 O   0  0  0  0  0  0  0  0  0  0  0  0
    2.7538   -0.8653    0.0000 O   0  0  0  0  0  0  0  0  0  0  0  0
    1.4723    1.3948    0.0000 O   0  0  0  0  0  0  0  0  0  0  0  0
    0.1558   -0.8450    0.0000 C   0  0  0  0  0  0  0  0  0  0  0  0
    1.4606   -0.1051    0.0000 C   0  0  0  0  0  0  0  0  0  0  0  0
  1  2  1  0
  1  3  1  0
  1  4  2  0
  1  7  1  0
  5  8  1  0
  6  8  2  0
  7  8  1  0
M  END
>  <PUBCHEM_COMPOUND_CID>  (1) 
546

>  <PUBCHEM_COMPOUND_CANONICALIZED>  (1) 
1

>  <PUBCHEM_CACTVS_COMPLEXITY>  (1) 
133

>  <PUBCHEM_CACTVS_HBOND_ACCEPTOR>  (1) 
5

>  <PUBCHEM_CACTVS_HBOND_DONOR>  (1) 
3

>  <PUBCHEM_CACTVS_ROTATABLE_BOND>  (1) 
2

>  <PUBCHEM_CACTVS_SUBSKEYS>  (1) 
AAADcYBAOAIAAAAAAAAAAAAAAAAAAAAAAAAAAAAAAAAAAAAAAAAAGggACCAAAACIgAAACAAAAhAIQACQCIAAAAAAAAAAAAAAAAAAAAAAAAAAAAAAAAAAAAAAAAAAAAAAAAAAAAAAAAAAAAAAAAAAAAAAAA==

>  <PUBCHEM_IUPAC_OPENEYE_NAME>  (1) 
2-phosphonoacetic acid

>  <PUBCHEM_IUPAC_CAS_NAME>  (1) 
2-phosphonoacetic acid

>  <PUBCHEM_IUPAC_NAME_MARKUP>  (1) 
2-phosphonoacetic acid

>  <PUBCHEM_IUPAC_NAME>  (1) 
2-phosphonoacetic acid

>  <PUBCHEM_IUPAC_SYSTEMATIC_NAME>  (1) 
2-phosphonoethanoic acid

>  <PUBCHEM_IUPAC_TRADITIONAL_NAME>  (1) 
2-phosphonoacetic acid

>  <PUBCHEM_IUPAC_INCHI>  (1) 
InChI=1S/C2H5O5P/c3-2(4)1-8(5,6)7/h1H2,(H,3,4)(H2,5,6,7)

>  <PUBCHEM_IUPAC_INCHIKEY>  (1) 
XUYJLQHKOGNDPB-UHFFFAOYSA-N

>  <PUBCHEM_XLOGP3_AA>  (1) 
-2

>  <PUBCHEM_EXACT_MASS>  (1) 
139.98746

>  <PUBCHEM_MOLECULAR_FORMULA>  (1) 
C2H5O5P

>  <PUBCHEM_MOLECULAR_WEIGHT>  (1) 
140.03

>  <PUBCHEM_OPENEYE_CAN_SMILES>  (1) 
C(C(=O)O)P(=O)(O)O

>  <PUBCHEM_OPENEYE_ISO_SMILES>  (1) 
C(C(=O)O)P(=O)(O)O

>  <PUBCHEM_CACTVS_TPSA>  (1) 
94.8

>  <PUBCHEM_MONOISOTOPIC_WEIGHT>  (1) 
139.98746

>  <PUBCHEM_TOTAL_CHARGE>  (1) 
0

>  <PUBCHEM_HEAVY_ATOM_COUNT>  (1) 
8

>  <PUBCHEM_ATOM_DEF_STEREO_COUNT>  (1) 
0

>  <PUBCHEM_ATOM_UDEF_STEREO_COUNT>  (1) 
0

>  <PUBCHEM_BOND_DEF_STEREO_COUNT>  (1) 
0

>  <PUBCHEM_BOND_UDEF_STEREO_COUNT>  (1) 
0

>  <PUBCHEM_ISOTOPIC_ATOM_COUNT>  (1) 
0

>  <PUBCHEM_COMPONENT_COUNT>  (1) 
1

>  <PUBCHEM_CACTVS_TAUTO_COUNT>  (1) 
-1

>  <PUBCHEM_COORDINATE_TYPE>  (1) 
1
5
255

$$$$
