555
     RDKit          2D

 10 10  0  0  1  0  0  0  0  0999 V2000
    2.1721   -1.3164    0.0000 O   0  0  0  0  0  0  0  0  0  0  0  0
    2.7035    1.2268    0.0000 O   0  0  0  0  0  0  0  0  0  0  0  0
   -0.8759   -0.5922    0.0000 N   0  0  0  0  0  0  0  0  0  0  0  0
    0.2354    0.4154    0.0000 C   0  0  0  0  0  0  0  0  0  0  0  0
   -2.1775    0.1533    0.0000 C   0  0  0  0  0  0  0  0  0  0  0  0
   -0.3795    1.7836    0.0000 C   0  0  0  0  0  0  0  0  0  0  0  0
   -1.8707    1.6216    0.0000 C   0  0  0  0  0  0  0  0  0  0  0  0
    0.2423   -1.5920    0.0000 C   0  0  0  0  0  0  0  0  0  0  0  0
   -1.7533   -1.8087    0.0000 C   0  0  0  0  0  0  0  0  0  0  0  0
    1.7037    0.1086    0.0000 C   0  0  0  0  0  0  0  0  0  0  0  0
  1 10  1  0
  2 10  2  0
  3  4  1  0
  3  5  1  0
  3  8  1  0
  3  9  1  0
  4  6  1  0
  4 10  1  0
  5  7  1  0
  6  7  1  0
M  CHG  1   3   1
M  END
>  <PUBCHEM_COMPOUND_CID>  (1) 
555

>  <PUBCHEM_COMPOUND_CANONICALIZED>  (1) 
1

>  <PUBCHEM_CACTVS_COMPLEXITY>  (1) 
154

>  <PUBCHEM_CACTVS_HBOND_ACCEPTOR>  (1) 
2

>  <PUBCHEM_CACTVS_HBOND_DONOR>  (1) 
1

>  <PUBCHEM_CACTVS_ROTATABLE_BOND>  (1) 
1

>  <PUBCHEM_CACTVS_SUBSKEYS>  (1) 
AAADccBiMAAAAAAAAAAAAAAAAAAAAWAAAAAAAAAAAAAAAAAAAAAAHgAACAAACCjBgAQCCAMAAgAIAACQCAAAAAAAAAAAAAGIAAACABIAgCAEQAAEAACQAACYEQIAAAAAAAAAAAAAAAAAAAAAAAAAAAAAAA==

>  <PUBCHEM_IUPAC_OPENEYE_NAME>  (1) 
1,1-dimethylpyrrolidin-1-ium-2-carboxylic acid

>  <PUBCHEM_IUPAC_CAS_NAME>  (1) 
1,1-dimethyl-2-pyrrolidin-1-iumcarboxylic acid

>  <PUBCHEM_IUPAC_NAME_MARKUP>  (1) 
1,1-dimethylpyrrolidin-1-ium-2-carboxylic acid

>  <PUBCHEM_IUPAC_NAME>  (1) 
1,1-dimethylpyrrolidin-1-ium-2-carboxylic acid

>  <PUBCHEM_IUPAC_SYSTEMATIC_NAME>  (1) 
1,1-dimethylpyrrolidin-1-ium-2-carboxylic acid

>  <PUBCHEM_IUPAC_TRADITIONAL_NAME>  (1) 
1,1-dimethylpyrrolidin-1-ium-2-carboxylic acid

>  <PUBCHEM_IUPAC_INCHI>  (1) 
InChI=1S/C7H13NO2/c1-8(2)5-3-4-6(8)7(9)10/h6H,3-5H2,1-2H3/p+1

>  <PUBCHEM_IUPAC_INCHIKEY>  (1) 
CMUNUTVVOOHQPW-UHFFFAOYSA-O

>  <PUBCHEM_XLOGP3_AA>  (1) 
0.4

>  <PUBCHEM_EXACT_MASS>  (1) 
144.102454

>  <PUBCHEM_MOLECULAR_FORMULA>  (1) 
C7H14NO2+

>  <PUBCHEM_MOLECULAR_WEIGHT>  (1) 
144.19

>  <PUBCHEM_OPENEYE_CAN_SMILES>  (1) 
C[N+]1(CCCC1C(=O)O)C

>  <PUBCHEM_OPENEYE_ISO_SMILES>  (1) 
C[N+]1(CCCC1C(=O)O)C

>  <PUBCHEM_CACTVS_TPSA>  (1) 
37.3

>  <PUBCHEM_MONOISOTOPIC_WEIGHT>  (1) 
144.102454

>  <PUBCHEM_TOTAL_CHARGE>  (1) 
1

>  <PUBCHEM_HEAVY_ATOM_COUNT>  (1) 
10

>  <PUBCHEM_ATOM_DEF_STEREO_COUNT>  (1) 
0

>  <PUBCHEM_ATOM_UDEF_STEREO_COUNT>  (1) 
1

>  <PUBCHEM_BOND_DEF_STEREO_COUNT>  (1) 
0

>  <PUBCHEM_BOND_UDEF_STEREO_COUNT>  (1) 
0

>  <PUBCHEM_ISOTOPIC_ATOM_COUNT>  (1) 
0

>  <PUBCHEM_COMPONENT_COUNT>  (1) 
1

>  <PUBCHEM_CACTVS_TAUTO_COUNT>  (1) 
-1

>  <PUBCHEM_COORDINATE_TYPE>  (1) 
1
5
255

>  <PUBCHEM_BONDANNOTATIONS>  (1) 
4  10  3

$$$$
