56
     RDKit          2D

 48 48  0  0  0  0  0  0  0  0999 V2000
  -14.8528   -1.9524    0.0000 O   0  0  0  0  0  0  0  0  0  0  0  0
  -17.8512   -1.8546    0.0000 O   0  0  0  0  0  0  0  0  0  0  0  0
    3.2223    0.0573    0.0000 C   0  0  0  0  0  0  0  0  0  0  0  0
   -1.2753    0.2041    0.0000 C   0  0  0  0  0  0  0  0  0  0  0  0
    0.2239    0.1552    0.0000 C   0  0  0  0  0  0  0  0  0  0  0  0
    4.7215    0.0084    0.0000 C   0  0  0  0  0  0  0  0  0  0  0  0
    7.7199   -0.0894    0.0000 C   0  0  0  0  0  0  0  0  0  0  0  0
    2.5151    1.3801    0.0000 C   0  0  0  0  0  0  0  0  0  0  0  0
   -5.7729    0.3508    0.0000 C   0  0  0  0  0  0  0  0  0  0  0  0
   -4.2737    0.3019    0.0000 C   0  0  0  0  0  0  0  0  0  0  0  0
   -2.0672   -1.0698    0.0000 C   0  0  0  0  0  0  0  0  0  0  0  0
    9.2191   -0.1383    0.0000 C   0  0  0  0  0  0  0  0  0  0  0  0
    6.9280   -1.3633    0.0000 C   0  0  0  0  0  0  0  0  0  0  0  0
    1.0159    1.4290    0.0000 C   0  0  0  0  0  0  0  0  0  0  0  0
    5.4288   -1.3144    0.0000 C   0  0  0  0  0  0  0  0  0  0  0  0
   -6.4801    1.6736    0.0000 C   0  0  0  0  0  0  0  0  0  0  0  0
   12.2175   -0.2362    0.0000 C   0  0  0  0  0  0  0  0  0  0  0  0
   -3.5664   -1.0209    0.0000 C   0  0  0  0  0  0  0  0  0  0  0  0
   11.5103    1.0866    0.0000 C   0  0  0  0  0  0  0  0  0  0  0  0
   10.0111    1.1356    0.0000 C   0  0  0  0  0  0  0  0  0  0  0  0
   -8.7713    0.4486    0.0000 C   0  0  0  0  0  0  0  0  0  0  0  0
   13.7167   -0.2851    0.0000 C   0  0  0  0  0  0  0  0  0  0  0  0
  -10.2705    0.4976    0.0000 C   0  0  0  0  0  0  0  0  0  0  0  0
   -7.9793    1.7225    0.0000 C   0  0  0  0  0  0  0  0  0  0  0  0
    3.3071    2.6540    0.0000 C   0  0  0  0  0  0  0  0  0  0  0  0
   -1.3600   -2.3926    0.0000 C   0  0  0  0  0  0  0  0  0  0  0  0
    7.6352   -2.6861    0.0000 C   0  0  0  0  0  0  0  0  0  0  0  0
  -11.0624   -0.7763    0.0000 C   0  0  0  0  0  0  0  0  0  0  0  0
   14.4240   -1.6079    0.0000 C   0  0  0  0  0  0  0  0  0  0  0  0
   15.9232   -1.6568    0.0000 C   0  0  0  0  0  0  0  0  0  0  0  0
   -5.6882    2.9475    0.0000 C   0  0  0  0  0  0  0  0  0  0  0  0
   12.3023    2.3605    0.0000 C   0  0  0  0  0  0  0  0  0  0  0  0
   16.7152   -0.3829    0.0000 C   0  0  0  0  0  0  0  0  0  0  0  0
  -12.5617   -0.7274    0.0000 C   0  0  0  0  0  0  0  0  0  0  0  0
  -13.2689    0.5954    0.0000 C   0  0  0  0  0  0  0  0  0  0  0  0
   18.2144   -0.4318    0.0000 C   0  0  0  0  0  0  0  0  0  0  0  0
  -10.3552   -2.0991    0.0000 C   0  0  0  0  0  0  0  0  0  0  0  0
   16.6304   -2.9796    0.0000 C   0  0  0  0  0  0  0  0  0  0  0  0
  -14.7681    0.6443    0.0000 C   0  0  0  0  0  0  0  0  0  0  0  0
   19.0063    0.8421    0.0000 C   0  0  0  0  0  0  0  0  0  0  0  0
  -15.5601   -0.6296    0.0000 C   0  0  0  0  0  0  0  0  0  0  0  0
  -15.4753    1.9671    0.0000 C   0  0  0  0  0  0  0  0  0  0  0  0
  -17.0593   -0.5807    0.0000 C   0  0  0  0  0  0  0  0  0  0  0  0
  -16.9745    2.0160    0.0000 C   0  0  0  0  0  0  0  0  0  0  0  0
  -17.7665    0.7421    0.0000 C   0  0  0  0  0  0  0  0  0  0  0  0
   20.5055    0.7932    0.0000 C   0  0  0  0  0  0  0  0  0  0  0  0
   21.2975    2.0670    0.0000 C   0  0  0  0  0  0  0  0  0  0  0  0
  -19.3504   -1.8056    0.0000 C   0  0  0  0  0  0  0  0  0  0  0  0
  1 41  1  0
  2 43  1  0
  2 48  1  0
  3  6  1  0
  3  8  1  0
  4  5  1  0
  4 11  1  0
  5 14  1  0
  6 15  1  0
  7 12  1  0
  7 13  1  0
  8 14  2  3
  8 25  1  0
  9 10  1  0
  9 16  1  0
 10 18  1  0
 11 18  2  3
 11 26  1  0
 12 20  1  0
 13 15  2  3
 13 27  1  0
 16 24  2  3
 16 31  1  0
 17 19  1  0
 17 22  1  0
 19 20  2  3
 19 32  1  0
 21 23  1  0
 21 24  1  0
 22 29  1  0
 23 28  1  0
 28 34  2  3
 28 37  1  0
 29 30  2  3
 30 33  1  0
 30 38  1  0
 33 36  1  0
 34 35  1  0
 35 39  1  0
 36 40  1  0
 39 41  2  0
 39 42  1  0
 40 46  2  3
 41 43  1  0
 42 44  2  0
 43 45  2  0
 44 45  1  0
 46 47  1  0
M  END
>  <PUBCHEM_COMPOUND_CID>  (1) 
56

>  <PUBCHEM_COMPOUND_CANONICALIZED>  (1) 
1

>  <PUBCHEM_CACTVS_COMPLEXITY>  (1) 
1120

>  <PUBCHEM_CACTVS_HBOND_ACCEPTOR>  (1) 
2

>  <PUBCHEM_CACTVS_HBOND_DONOR>  (1) 
1

>  <PUBCHEM_CACTVS_ROTATABLE_BOND>  (1) 
24

>  <PUBCHEM_CACTVS_SUBSKEYS>  (1) 
AAADcfB8MAAAAAAAAAAAAAAAAAAAAAAAAAAwAAAAAAAAAAABAAAAGgAACAAADASAmAIyBoAABgCAAiBCAAACCAAgIAAIiAAGiIgNJiKGMRqAcCMkwBELuAeAwLAOAAABAAAIQAAAAAIAABCAAAAAAAAAAA==

>  <PUBCHEM_IUPAC_OPENEYE_NAME>  (1) 
2-(3,7,11,15,19,23,27-heptamethyldotriaconta-2,6,10,14,18,22,26,30-octaenyl)-6-methoxy-phenol

>  <PUBCHEM_IUPAC_CAS_NAME>  (1) 
2-(3,7,11,15,19,23,27-heptamethyldotriaconta-2,6,10,14,18,22,26,30-octaenyl)-6-methoxyphenol

>  <PUBCHEM_IUPAC_NAME_MARKUP>  (1) 
2-(3,7,11,15,19,23,27-heptamethyldotriaconta-2,6,10,14,18,22,26,30-octaenyl)-6-methoxyphenol

>  <PUBCHEM_IUPAC_NAME>  (1) 
2-(3,7,11,15,19,23,27-heptamethyldotriaconta-2,6,10,14,18,22,26,30-octaenyl)-6-methoxyphenol

>  <PUBCHEM_IUPAC_SYSTEMATIC_NAME>  (1) 
2-(3,7,11,15,19,23,27-heptamethyldotriaconta-2,6,10,14,18,22,26,30-octaenyl)-6-methoxy-phenol

>  <PUBCHEM_IUPAC_TRADITIONAL_NAME>  (1) 
2-(3,7,11,15,19,23,27-heptamethyldotriaconta-2,6,10,14,18,22,26,30-octaenyl)-6-methoxy-phenol

>  <PUBCHEM_IUPAC_INCHI>  (1) 
InChI=1S/C46H70O2/c1-10-11-12-20-37(2)21-13-22-38(3)23-14-24-39(4)25-15-26-40(5)27-16-28-41(6)29-17-30-42(7)31-18-32-43(8)35-36-44-33-19-34-45(48-9)46(44)47/h10-11,19,21,23,25,27,29,31,33-35,47H,12-18,20,22,24,26,28,30,32,36H2,1-9H3

>  <PUBCHEM_IUPAC_INCHIKEY>  (1) 
MJLXNZUZQMWZTB-UHFFFAOYSA-N

>  <PUBCHEM_XLOGP3_AA>  (1) 
15.8

>  <PUBCHEM_EXACT_MASS>  (1) 
654.537581

>  <PUBCHEM_MOLECULAR_FORMULA>  (1) 
C46H70O2

>  <PUBCHEM_MOLECULAR_WEIGHT>  (1) 
655

>  <PUBCHEM_OPENEYE_CAN_SMILES>  (1) 
CC=CCCC(=CCCC(=CCCC(=CCCC(=CCCC(=CCCC(=CCCC(=CCC1=C(C(=CC=C1)OC)O)C)C)C)C)C)C)C

>  <PUBCHEM_OPENEYE_ISO_SMILES>  (1) 
CC=CCCC(=CCCC(=CCCC(=CCCC(=CCCC(=CCCC(=CCCC(=CCC1=C(C(=CC=C1)OC)O)C)C)C)C)C)C)C

>  <PUBCHEM_CACTVS_TPSA>  (1) 
29.5

>  <PUBCHEM_MONOISOTOPIC_WEIGHT>  (1) 
654.537581

>  <PUBCHEM_TOTAL_CHARGE>  (1) 
0

>  <PUBCHEM_HEAVY_ATOM_COUNT>  (1) 
48

>  <PUBCHEM_ATOM_DEF_STEREO_COUNT>  (1) 
0

>  <PUBCHEM_ATOM_UDEF_STEREO_COUNT>  (1) 
0

>  <PUBCHEM_BOND_DEF_STEREO_COUNT>  (1) 
0

>  <PUBCHEM_BOND_UDEF_STEREO_COUNT>  (1) 
8

>  <PUBCHEM_ISOTOPIC_ATOM_COUNT>  (1) 
0

>  <PUBCHEM_COMPONENT_COUNT>  (1) 
1

>  <PUBCHEM_CACTVS_TAUTO_COUNT>  (1) 
-1

>  <PUBCHEM_COORDINATE_TYPE>  (1) 
1
5
255

>  <PUBCHEM_BONDANNOTATIONS>  (1) 
11  18  1
13  15  1
16  24  1
19  20  1
28  34  1
29  30  1
39  41  8
39  42  8
40  46  1
41  43  8
42  44  8
43  45  8
44  45  8
8  14  1

$$$$
