564
     RDKit          2D

  9  8  0  0  0  0  0  0  0  0999 V2000
    4.1550   -0.7729    0.0000 O   0  0  0  0  0  0  0  0  0  0  0  0
    2.9595    1.5338    0.0000 O   0  0  0  0  0  0  0  0  0  0  0  0
   -4.8948    0.3895    0.0000 N   0  0  0  0  0  0  0  0  0  0  0  0
   -1.0358   -0.5368    0.0000 C   0  0  0  0  0  0  0  0  0  0  0  0
    0.2960    0.1534    0.0000 C   0  0  0  0  0  0  0  0  0  0  0  0
   -2.2994    0.2714    0.0000 C   0  0  0  0  0  0  0  0  0  0  0  0
    1.5596   -0.6549    0.0000 C   0  0  0  0  0  0  0  0  0  0  0  0
   -3.6312   -0.4188    0.0000 C   0  0  0  0  0  0  0  0  0  0  0  0
    2.8913    0.0353    0.0000 C   0  0  0  0  0  0  0  0  0  0  0  0
  1  9  1  0
  2  9  2  0
  3  8  1  0
  4  5  1  0
  4  6  1  0
  5  7  1  0
  6  8  1  0
  7  9  1  0
M  END
>  <PUBCHEM_COMPOUND_CID>  (1) 
564

>  <PUBCHEM_COMPOUND_CANONICALIZED>  (1) 
1

>  <PUBCHEM_CACTVS_COMPLEXITY>  (1) 
83.1

>  <PUBCHEM_CACTVS_HBOND_ACCEPTOR>  (1) 
3

>  <PUBCHEM_CACTVS_HBOND_DONOR>  (1) 
2

>  <PUBCHEM_CACTVS_ROTATABLE_BOND>  (1) 
5

>  <PUBCHEM_CACTVS_SUBSKEYS>  (1) 
AAADccBiMAAAAAAAAAAAAAAAAAAAAAAAAAAAAAAAAAAAAAAAAAAAHgAQCAAACADBgAQACABAAgAIAACQCAAAAAAAAAAAAIEAAAAAABIAgAAAQAAEEAAAAAGYSAAAAAAAAAAAAAAAAAAAAAAAAAAAAAAAAA==

>  <PUBCHEM_IUPAC_OPENEYE_NAME>  (1) 
6-aminohexanoic acid

>  <PUBCHEM_IUPAC_CAS_NAME>  (1) 
6-aminohexanoic acid

>  <PUBCHEM_IUPAC_NAME_MARKUP>  (1) 
6-aminohexanoic acid

>  <PUBCHEM_IUPAC_NAME>  (1) 
6-aminohexanoic acid

>  <PUBCHEM_IUPAC_SYSTEMATIC_NAME>  (1) 
6-azanylhexanoic acid

>  <PUBCHEM_IUPAC_TRADITIONAL_NAME>  (1) 
6-aminohexanoic acid

>  <PUBCHEM_IUPAC_INCHI>  (1) 
InChI=1S/C6H13NO2/c7-5-3-1-2-4-6(8)9/h1-5,7H2,(H,8,9)

>  <PUBCHEM_IUPAC_INCHIKEY>  (1) 
SLXKOJJOQWFEFD-UHFFFAOYSA-N

>  <PUBCHEM_XLOGP3>  (1) 
-3

>  <PUBCHEM_EXACT_MASS>  (1) 
131.094629

>  <PUBCHEM_MOLECULAR_FORMULA>  (1) 
C6H13NO2

>  <PUBCHEM_MOLECULAR_WEIGHT>  (1) 
131.17

>  <PUBCHEM_OPENEYE_CAN_SMILES>  (1) 
C(CCC(=O)O)CCN

>  <PUBCHEM_OPENEYE_ISO_SMILES>  (1) 
C(CCC(=O)O)CCN

>  <PUBCHEM_CACTVS_TPSA>  (1) 
63.3

>  <PUBCHEM_MONOISOTOPIC_WEIGHT>  (1) 
131.094629

>  <PUBCHEM_TOTAL_CHARGE>  (1) 
0

>  <PUBCHEM_HEAVY_ATOM_COUNT>  (1) 
9

>  <PUBCHEM_ATOM_DEF_STEREO_COUNT>  (1) 
0

>  <PUBCHEM_ATOM_UDEF_STEREO_COUNT>  (1) 
0

>  <PUBCHEM_BOND_DEF_STEREO_COUNT>  (1) 
0

>  <PUBCHEM_BOND_UDEF_STEREO_COUNT>  (1) 
0

>  <PUBCHEM_ISOTOPIC_ATOM_COUNT>  (1) 
0

>  <PUBCHEM_COMPONENT_COUNT>  (1) 
1

>  <PUBCHEM_CACTVS_TAUTO_COUNT>  (1) 
-1

>  <PUBCHEM_COORDINATE_TYPE>  (1) 
1
5
255

$$$$
