568
     RDKit          2D

 13 15  0  0  0  0  0  0  0  0999 V2000
    0.0000    1.8428    0.0000 O   0  0  0  0  0  0  0  0  0  0  0  0
    0.7500   -0.4654    0.0000 C   0  0  0  0  0  0  0  0  0  0  0  0
   -0.7500   -0.4654    0.0000 C   0  0  0  0  0  0  0  0  0  0  0  0
    1.2135    0.9611    0.0000 C   0  0  0  0  0  0  0  0  0  0  0  0
   -1.2135    0.9611    0.0000 C   0  0  0  0  0  0  0  0  0  0  0  0
    1.7537   -1.5802    0.0000 C   0  0  0  0  0  0  0  0  0  0  0  0
   -1.7537   -1.5802    0.0000 C   0  0  0  0  0  0  0  0  0  0  0  0
    2.6807    1.2730    0.0000 C   0  0  0  0  0  0  0  0  0  0  0  0
   -2.6807    1.2730    0.0000 C   0  0  0  0  0  0  0  0  0  0  0  0
    3.2209   -1.2683    0.0000 C   0  0  0  0  0  0  0  0  0  0  0  0
   -3.2209   -1.2683    0.0000 C   0  0  0  0  0  0  0  0  0  0  0  0
    3.6844    0.1583    0.0000 C   0  0  0  0  0  0  0  0  0  0  0  0
   -3.6844    0.1583    0.0000 C   0  0  0  0  0  0  0  0  0  0  0  0
  1  4  1  0
  1  5  1  0
  2  3  1  0
  2  4  2  0
  2  6  1  0
  3  5  2  0
  3  7  1  0
  4  8  1  0
  5  9  1  0
  6 10  2  0
  7 11  2  0
  8 12  2  0
  9 13  2  0
 10 12  1  0
 11 13  1  0
M  END
>  <PUBCHEM_COMPOUND_CID>  (1) 
568

>  <PUBCHEM_COMPOUND_CANONICALIZED>  (1) 
1

>  <PUBCHEM_CACTVS_COMPLEXITY>  (1) 
170

>  <PUBCHEM_CACTVS_HBOND_ACCEPTOR>  (1) 
1

>  <PUBCHEM_CACTVS_HBOND_DONOR>  (1) 
0

>  <PUBCHEM_CACTVS_ROTATABLE_BOND>  (1) 
0

>  <PUBCHEM_CACTVS_SUBSKEYS>  (1) 
AAADccBwIAAAAAAAAAAAAAAAAAAAASAAAAAwYAAAAAAAAEgB/AAAGgAAAAAADASAmAAwBsAABECIAqBSAAACCAAkIAAIiAEGCMgMJjKENRqCOSCkwBEIqYeIyOCOgAAAAAAIAAAAAAAAABAAAAAAAAAAAA==

>  <PUBCHEM_IUPAC_OPENEYE_NAME>  (1) 
dibenzofuran

>  <PUBCHEM_IUPAC_CAS_NAME>  (1) 
dibenzofuran

>  <PUBCHEM_IUPAC_NAME_MARKUP>  (1) 
dibenzofuran

>  <PUBCHEM_IUPAC_NAME>  (1) 
dibenzofuran

>  <PUBCHEM_IUPAC_SYSTEMATIC_NAME>  (1) 
dibenzofuran

>  <PUBCHEM_IUPAC_TRADITIONAL_NAME>  (1) 
dibenzofuran

>  <PUBCHEM_IUPAC_INCHI>  (1) 
InChI=1S/C12H8O/c1-3-7-11-9(5-1)10-6-2-4-8-12(10)13-11/h1-8H

>  <PUBCHEM_IUPAC_INCHIKEY>  (1) 
TXCDCPKCNAJMEE-UHFFFAOYSA-N

>  <PUBCHEM_XLOGP3>  (1) 
4.1

>  <PUBCHEM_EXACT_MASS>  (1) 
168.057515

>  <PUBCHEM_MOLECULAR_FORMULA>  (1) 
C12H8O

>  <PUBCHEM_MOLECULAR_WEIGHT>  (1) 
168.19

>  <PUBCHEM_OPENEYE_CAN_SMILES>  (1) 
C1=CC=C2C(=C1)C3=CC=CC=C3O2

>  <PUBCHEM_OPENEYE_ISO_SMILES>  (1) 
C1=CC=C2C(=C1)C3=CC=CC=C3O2

>  <PUBCHEM_CACTVS_TPSA>  (1) 
13.1

>  <PUBCHEM_MONOISOTOPIC_WEIGHT>  (1) 
168.057515

>  <PUBCHEM_TOTAL_CHARGE>  (1) 
0

>  <PUBCHEM_HEAVY_ATOM_COUNT>  (1) 
13

>  <PUBCHEM_ATOM_DEF_STEREO_COUNT>  (1) 
0

>  <PUBCHEM_ATOM_UDEF_STEREO_COUNT>  (1) 
0

>  <PUBCHEM_BOND_DEF_STEREO_COUNT>  (1) 
0

>  <PUBCHEM_BOND_UDEF_STEREO_COUNT>  (1) 
0

>  <PUBCHEM_ISOTOPIC_ATOM_COUNT>  (1) 
0

>  <PUBCHEM_COMPONENT_COUNT>  (1) 
1

>  <PUBCHEM_CACTVS_TAUTO_COUNT>  (1) 
-1

>  <PUBCHEM_COORDINATE_TYPE>  (1) 
1
5
255

>  <PUBCHEM_BONDANNOTATIONS>  (1) 
1  4  8
1  5  8
10  12  8
11  13  8
2  3  8
2  4  8
2  6  8
3  5  8
3  7  8
4  8  8
5  9  8
6  10  8
7  11  8
8  12  8
9  13  8

$$$$
