569
     RDKit          2D

 15 16  0  0  0  0  0  0  0  0999 V2000
    1.0170   -2.2574    0.0000 O   0  0  0  0  0  0  0  0  0  0  0  0
   -1.5806    2.4863    0.0000 O   0  0  0  0  0  0  0  0  0  0  0  0
    3.9447   -1.6028    0.0000 O   0  0  0  0  0  0  0  0  0  0  0  0
    0.4502    0.2781    0.0000 C   0  0  0  0  0  0  0  0  0  0  0  0
   -1.0137   -0.0492    0.0000 C   0  0  0  0  0  0  0  0  0  0  0  0
    1.4655   -0.8260    0.0000 C   0  0  0  0  0  0  0  0  0  0  0  0
   -2.0291    1.0550    0.0000 C   0  0  0  0  0  0  0  0  0  0  0  0
    0.8987    1.7095    0.0000 C   0  0  0  0  0  0  0  0  0  0  0  0
   -1.4622   -1.4805    0.0000 C   0  0  0  0  0  0  0  0  0  0  0  0
    2.9294   -0.4987    0.0000 C   0  0  0  0  0  0  0  0  0  0  0  0
    2.3625    2.0368    0.0000 C   0  0  0  0  0  0  0  0  0  0  0  0
    3.3779    0.9327    0.0000 C   0  0  0  0  0  0  0  0  0  0  0  0
   -3.4929    0.7277    0.0000 C   0  0  0  0  0  0  0  0  0  0  0  0
   -2.9261   -1.8078    0.0000 C   0  0  0  0  0  0  0  0  0  0  0  0
   -3.9414   -0.7037    0.0000 C   0  0  0  0  0  0  0  0  0  0  0  0
  1  6  1  0
  2  7  1  0
  3 10  1  0
  4  5  1  0
  4  6  2  0
  4  8  1  0
  5  7  2  0
  5  9  1  0
  6 10  1  0
  7 13  1  0
  8 11  2  0
  9 14  2  0
 10 12  2  0
 11 12  1  0
 13 15  2  0
 14 15  1  0
M  END
>  <PUBCHEM_COMPOUND_CID>  (1) 
569

>  <PUBCHEM_COMPOUND_CANONICALIZED>  (1) 
1

>  <PUBCHEM_CACTVS_COMPLEXITY>  (1) 
207

>  <PUBCHEM_CACTVS_HBOND_ACCEPTOR>  (1) 
3

>  <PUBCHEM_CACTVS_HBOND_DONOR>  (1) 
3

>  <PUBCHEM_CACTVS_ROTATABLE_BOND>  (1) 
1

>  <PUBCHEM_CACTVS_SUBSKEYS>  (1) 
AAADccBwMAAAAAAAAAAAAAAAAAAAAAAAAAAwYAAAAAAAAAABQAAAGgAACAAADASAmAAwBoAAAgCAAiBCAAACAAAgIAAIiAAGiIgJJiKCERKAcAEkwBEJmAfA4PQOgAABAAAIQAAAAAIAABCAAAAAAAAAAA==

>  <PUBCHEM_IUPAC_OPENEYE_NAME>  (1) 
3-(2-hydroxyphenyl)benzene-1,2-diol

>  <PUBCHEM_IUPAC_CAS_NAME>  (1) 
3-(2-hydroxyphenyl)benzene-1,2-diol

>  <PUBCHEM_IUPAC_NAME_MARKUP>  (1) 
3-(2-hydroxyphenyl)benzene-1,2-diol

>  <PUBCHEM_IUPAC_NAME>  (1) 
3-(2-hydroxyphenyl)benzene-1,2-diol

>  <PUBCHEM_IUPAC_SYSTEMATIC_NAME>  (1) 
3-(2-hydroxyphenyl)benzene-1,2-diol

>  <PUBCHEM_IUPAC_TRADITIONAL_NAME>  (1) 
3-(2-hydroxyphenyl)pyrocatechol

>  <PUBCHEM_IUPAC_INCHI>  (1) 
InChI=1S/C12H10O3/c13-10-6-2-1-4-8(10)9-5-3-7-11(14)12(9)15/h1-7,13-15H

>  <PUBCHEM_IUPAC_INCHIKEY>  (1) 
USBNIYMZDQVDSO-UHFFFAOYSA-N

>  <PUBCHEM_XLOGP3_AA>  (1) 
2.5

>  <PUBCHEM_EXACT_MASS>  (1) 
202.062994

>  <PUBCHEM_MOLECULAR_FORMULA>  (1) 
C12H10O3

>  <PUBCHEM_MOLECULAR_WEIGHT>  (1) 
202.21

>  <PUBCHEM_OPENEYE_CAN_SMILES>  (1) 
C1=CC=C(C(=C1)C2=C(C(=CC=C2)O)O)O

>  <PUBCHEM_OPENEYE_ISO_SMILES>  (1) 
C1=CC=C(C(=C1)C2=C(C(=CC=C2)O)O)O

>  <PUBCHEM_CACTVS_TPSA>  (1) 
60.7

>  <PUBCHEM_MONOISOTOPIC_WEIGHT>  (1) 
202.062994

>  <PUBCHEM_TOTAL_CHARGE>  (1) 
0

>  <PUBCHEM_HEAVY_ATOM_COUNT>  (1) 
15

>  <PUBCHEM_ATOM_DEF_STEREO_COUNT>  (1) 
0

>  <PUBCHEM_ATOM_UDEF_STEREO_COUNT>  (1) 
0

>  <PUBCHEM_BOND_DEF_STEREO_COUNT>  (1) 
0

>  <PUBCHEM_BOND_UDEF_STEREO_COUNT>  (1) 
0

>  <PUBCHEM_ISOTOPIC_ATOM_COUNT>  (1) 
0

>  <PUBCHEM_COMPONENT_COUNT>  (1) 
1

>  <PUBCHEM_CACTVS_TAUTO_COUNT>  (1) 
-1

>  <PUBCHEM_COORDINATE_TYPE>  (1) 
1
5
255

>  <PUBCHEM_BONDANNOTATIONS>  (1) 
10  12  8
11  12  8
13  15  8
14  15  8
4  6  8
4  8  8
5  7  8
5  9  8
6  10  8
7  13  8
8  11  8
9  14  8

$$$$
