570
     RDKit          2D

 16 16  0  0  0  0  0  0  0  0999 V2000
    1.2208   -2.3010    0.0000 O   0  0  0  0  0  0  0  0  0  0  0  0
   -3.9451   -1.7417    0.0000 O   0  0  0  0  0  0  0  0  0  0  0  0
   -6.3667    0.0292    0.0000 O   0  0  0  0  0  0  0  0  0  0  0  0
   -4.8330    2.1263    0.0000 O   0  0  0  0  0  0  0  0  0  0  0  0
    2.7545   -0.2039    0.0000 C   0  0  0  0  0  0  0  0  0  0  0  0
    1.3823   -0.8097    0.0000 C   0  0  0  0  0  0  0  0  0  0  0  0
    2.9160    1.2874    0.0000 C   0  0  0  0  0  0  0  0  0  0  0  0
    3.9653   -1.0894    0.0000 C   0  0  0  0  0  0  0  0  0  0  0  0
    4.2882    1.8932    0.0000 C   0  0  0  0  0  0  0  0  0  0  0  0
    5.3375   -0.4836    0.0000 C   0  0  0  0  0  0  0  0  0  0  0  0
    0.1715    0.0757    0.0000 C   0  0  0  0  0  0  0  0  0  0  0  0
    5.4989    1.0077    0.0000 C   0  0  0  0  0  0  0  0  0  0  0  0
   -1.2007   -0.5301    0.0000 C   0  0  0  0  0  0  0  0  0  0  0  0
   -2.4115    0.3554    0.0000 C   0  0  0  0  0  0  0  0  0  0  0  0
   -3.7837   -0.2504    0.0000 C   0  0  0  0  0  0  0  0  0  0  0  0
   -4.9944    0.6350    0.0000 C   0  0  0  0  0  0  0  0  0  0  0  0
  1  6  1  0
  2 15  2  0
  3 16  1  0
  4 16  2  0
  5  6  1  0
  5  7  2  0
  5  8  1  0
  6 11  2  3
  7  9  1  0
  8 10  2  0
  9 12  2  0
 10 12  1  0
 11 13  1  0
 13 14  2  3
 14 15  1  0
 15 16  1  0
M  END
>  <PUBCHEM_COMPOUND_CID>  (1) 
570

>  <PUBCHEM_COMPOUND_CANONICALIZED>  (1) 
1

>  <PUBCHEM_CACTVS_COMPLEXITY>  (1) 
322

>  <PUBCHEM_CACTVS_HBOND_ACCEPTOR>  (1) 
4

>  <PUBCHEM_CACTVS_HBOND_DONOR>  (1) 
2

>  <PUBCHEM_CACTVS_ROTATABLE_BOND>  (1) 
4

>  <PUBCHEM_CACTVS_SUBSKEYS>  (1) 
AAADccBwOAAAAAAAAAAAAAAAAAAAAAAAAAAwAAAAAAAAAAABAAAAGgAACAAADASAmAAwCIAAAgCIAqDSCAICAAAgIAAIiAFACMgIJiKAERCAcAAkwAEImYeAwCAOAAAAAAAAAAAAAAAAAAAAAAAAAAAAAA==

>  <PUBCHEM_IUPAC_OPENEYE_NAME>  (1) 
6-hydroxy-2-oxo-6-phenyl-hexa-3,5-dienoic acid

>  <PUBCHEM_IUPAC_CAS_NAME>  (1) 
6-hydroxy-2-oxo-6-phenylhexa-3,5-dienoic acid

>  <PUBCHEM_IUPAC_NAME_MARKUP>  (1) 
6-hydroxy-2-oxo-6-phenylhexa-3,5-dienoic acid

>  <PUBCHEM_IUPAC_NAME>  (1) 
6-hydroxy-2-oxo-6-phenylhexa-3,5-dienoic acid

>  <PUBCHEM_IUPAC_SYSTEMATIC_NAME>  (1) 
6-oxidanyl-2-oxidanylidene-6-phenyl-hexa-3,5-dienoic acid

>  <PUBCHEM_IUPAC_TRADITIONAL_NAME>  (1) 
6-hydroxy-2-keto-6-phenyl-hexa-3,5-dienoic acid

>  <PUBCHEM_IUPAC_INCHI>  (1) 
InChI=1S/C12H10O4/c13-10(9-5-2-1-3-6-9)7-4-8-11(14)12(15)16/h1-8,13H,(H,15,16)

>  <PUBCHEM_IUPAC_INCHIKEY>  (1) 
YOVXRIACERVBAG-UHFFFAOYSA-N

>  <PUBCHEM_XLOGP3_AA>  (1) 
1.8

>  <PUBCHEM_EXACT_MASS>  (1) 
218.057909

>  <PUBCHEM_MOLECULAR_FORMULA>  (1) 
C12H10O4

>  <PUBCHEM_MOLECULAR_WEIGHT>  (1) 
218.2

>  <PUBCHEM_OPENEYE_CAN_SMILES>  (1) 
C1=CC=C(C=C1)C(=CC=CC(=O)C(=O)O)O

>  <PUBCHEM_OPENEYE_ISO_SMILES>  (1) 
C1=CC=C(C=C1)C(=CC=CC(=O)C(=O)O)O

>  <PUBCHEM_CACTVS_TPSA>  (1) 
74.6

>  <PUBCHEM_MONOISOTOPIC_WEIGHT>  (1) 
218.057909

>  <PUBCHEM_TOTAL_CHARGE>  (1) 
0

>  <PUBCHEM_HEAVY_ATOM_COUNT>  (1) 
16

>  <PUBCHEM_ATOM_DEF_STEREO_COUNT>  (1) 
0

>  <PUBCHEM_ATOM_UDEF_STEREO_COUNT>  (1) 
0

>  <PUBCHEM_BOND_DEF_STEREO_COUNT>  (1) 
0

>  <PUBCHEM_BOND_UDEF_STEREO_COUNT>  (1) 
2

>  <PUBCHEM_ISOTOPIC_ATOM_COUNT>  (1) 
0

>  <PUBCHEM_COMPONENT_COUNT>  (1) 
1

>  <PUBCHEM_CACTVS_TAUTO_COUNT>  (1) 
-1

>  <PUBCHEM_COORDINATE_TYPE>  (1) 
1
5
255

>  <PUBCHEM_BONDANNOTATIONS>  (1) 
10  12  8
13  14  1
5  7  8
5  8  8
6  11  1
7  9  8
8  10  8
9  12  8

$$$$
