572
     RDKit          2D

 11 10  0  0  0  0  0  0  0  0999 V2000
   -2.8343    0.0000    0.0000 P   0  0  0  0  0  0  0  0  0  0  0  0
   -3.5843    1.2990    0.0000 O   0  0  0  0  0  0  0  0  0  0  0  0
   -2.0843   -1.2990    0.0000 O   0  0  0  0  0  0  0  0  0  0  0  0
   -4.1333   -0.7500    0.0000 O   0  0  0  0  0  0  0  0  0  0  0  0
    2.3619   -1.5000    0.0000 O   0  0  0  0  0  0  0  0  0  0  0  0
    4.9600   -0.0000    0.0000 O   0  0  0  0  0  0  0  0  0  0  0  0
    2.3619   -0.0000    0.0000 N   0  0  0  0  0  0  0  0  0  0  0  0
   -0.2362    0.0000    0.0000 C   0  0  0  0  0  0  0  0  0  0  0  0
   -1.5352    0.7500    0.0000 C   0  0  0  0  0  0  0  0  0  0  0  0
    1.0628    0.7500    0.0000 C   0  0  0  0  0  0  0  0  0  0  0  0
    3.6609    0.7500    0.0000 C   0  0  0  0  0  0  0  0  0  0  0  0
  1  2  1  0
  1  3  1  0
  1  4  2  0
  1  9  1  0
  5  7  1  0
  6 11  2  0
  7 10  1  0
  7 11  1  0
  8  9  1  0
  8 10  1  0
M  END
>  <PUBCHEM_COMPOUND_CID>  (1) 
572

>  <PUBCHEM_COMPOUND_CANONICALIZED>  (1) 
1

>  <PUBCHEM_CACTVS_COMPLEXITY>  (1) 
166

>  <PUBCHEM_CACTVS_HBOND_ACCEPTOR>  (1) 
5

>  <PUBCHEM_CACTVS_HBOND_DONOR>  (1) 
3

>  <PUBCHEM_CACTVS_ROTATABLE_BOND>  (1) 
4

>  <PUBCHEM_CACTVS_SUBSKEYS>  (1) 
AAADccBiOAIAAAAAAAAAAAAAAAAAAAAAAAAAAAAAAAAAAAAAAAAAHggECCAACADJAAYAAAIQABAIQAAAkIAAAAAAAAAgAAAIAAAAAAAAAAAEAAAABgAAAAAAAAAAAAAAAAAAAAAAAAAAAAAAAAAAAAAAAA==

>  <PUBCHEM_IUPAC_OPENEYE_NAME>  (1) 
3-[formyl(hydroxy)amino]propylphosphonic acid

>  <PUBCHEM_IUPAC_CAS_NAME>  (1) 
3-[formyl(hydroxy)amino]propylphosphonic acid

>  <PUBCHEM_IUPAC_NAME_MARKUP>  (1) 
3-[formyl(hydroxy)amino]propylphosphonic acid

>  <PUBCHEM_IUPAC_NAME>  (1) 
3-[formyl(hydroxy)amino]propylphosphonic acid

>  <PUBCHEM_IUPAC_SYSTEMATIC_NAME>  (1) 
3-[methanoyl(oxidanyl)amino]propylphosphonic acid

>  <PUBCHEM_IUPAC_TRADITIONAL_NAME>  (1) 
3-[formyl(hydroxy)amino]propylphosphonic acid

>  <PUBCHEM_IUPAC_INCHI>  (1) 
InChI=1S/C4H10NO5P/c6-4-5(7)2-1-3-11(8,9)10/h4,7H,1-3H2,(H2,8,9,10)

>  <PUBCHEM_IUPAC_INCHIKEY>  (1) 
GJXWDTUCERCKIX-UHFFFAOYSA-N

>  <PUBCHEM_XLOGP3_AA>  (1) 
-2.2

>  <PUBCHEM_EXACT_MASS>  (1) 
183.029659

>  <PUBCHEM_MOLECULAR_FORMULA>  (1) 
C4H10NO5P

>  <PUBCHEM_MOLECULAR_WEIGHT>  (1) 
183.1

>  <PUBCHEM_OPENEYE_CAN_SMILES>  (1) 
C(CN(C=O)O)CP(=O)(O)O

>  <PUBCHEM_OPENEYE_ISO_SMILES>  (1) 
C(CN(C=O)O)CP(=O)(O)O

>  <PUBCHEM_CACTVS_TPSA>  (1) 
98.1

>  <PUBCHEM_MONOISOTOPIC_WEIGHT>  (1) 
183.029659

>  <PUBCHEM_TOTAL_CHARGE>  (1) 
0

>  <PUBCHEM_HEAVY_ATOM_COUNT>  (1) 
11

>  <PUBCHEM_ATOM_DEF_STEREO_COUNT>  (1) 
0

>  <PUBCHEM_ATOM_UDEF_STEREO_COUNT>  (1) 
0

>  <PUBCHEM_BOND_DEF_STEREO_COUNT>  (1) 
0

>  <PUBCHEM_BOND_UDEF_STEREO_COUNT>  (1) 
0

>  <PUBCHEM_ISOTOPIC_ATOM_COUNT>  (1) 
0

>  <PUBCHEM_COMPONENT_COUNT>  (1) 
1

>  <PUBCHEM_CACTVS_TAUTO_COUNT>  (1) 
-1

>  <PUBCHEM_COORDINATE_TYPE>  (1) 
1
5
255

$$$$
