573
     RDKit          2D

 40 41  0  0  0  0  0  0  0  0999 V2000
   -9.9281   -2.4579    0.0000 C   0  0  0  0  0  0  0  0  0  0  0  0
    9.7636   -0.0116    0.0000 C   0  0  0  0  0  0  0  0  0  0  0  0
  -11.2742   -3.1199    0.0000 C   0  0  0  0  0  0  0  0  0  0  0  0
   11.1096    0.6504    0.0000 C   0  0  0  0  0  0  0  0  0  0  0  0
  -12.5205   -2.2852    0.0000 C   0  0  0  0  0  0  0  0  0  0  0  0
   12.3559   -0.1843    0.0000 C   0  0  0  0  0  0  0  0  0  0  0  0
   -9.8284   -0.9612    0.0000 C   0  0  0  0  0  0  0  0  0  0  0  0
    9.6639   -1.5083    0.0000 C   0  0  0  0  0  0  0  0  0  0  0  0
  -12.4208   -0.7885    0.0000 C   0  0  0  0  0  0  0  0  0  0  0  0
   12.2562   -1.6810    0.0000 C   0  0  0  0  0  0  0  0  0  0  0  0
  -11.0747   -0.1265    0.0000 C   0  0  0  0  0  0  0  0  0  0  0  0
   10.9102   -2.3430    0.0000 C   0  0  0  0  0  0  0  0  0  0  0  0
   -8.4369   -2.2962    0.0000 C   0  0  0  0  0  0  0  0  0  0  0  0
   -9.5100   -3.8985    0.0000 C   0  0  0  0  0  0  0  0  0  0  0  0
    8.2724   -0.1733    0.0000 C   0  0  0  0  0  0  0  0  0  0  0  0
    9.3454    1.4289    0.0000 C   0  0  0  0  0  0  0  0  0  0  0  0
   -8.4824   -0.2993    0.0000 C   0  0  0  0  0  0  0  0  0  0  0  0
    8.3179   -2.1703    0.0000 C   0  0  0  0  0  0  0  0  0  0  0  0
  -10.9750    1.3701    0.0000 C   0  0  0  0  0  0  0  0  0  0  0  0
   10.8105   -3.8397    0.0000 C   0  0  0  0  0  0  0  0  0  0  0  0
   -7.2361   -1.1340    0.0000 C   0  0  0  0  0  0  0  0  0  0  0  0
    7.0716   -1.3356    0.0000 C   0  0  0  0  0  0  0  0  0  0  0  0
   -5.8901   -0.4720    0.0000 C   0  0  0  0  0  0  0  0  0  0  0  0
    5.7255   -1.9975    0.0000 C   0  0  0  0  0  0  0  0  0  0  0  0
   -4.6438   -1.3067    0.0000 C   0  0  0  0  0  0  0  0  0  0  0  0
    5.6258   -3.4942    0.0000 C   0  0  0  0  0  0  0  0  0  0  0  0
   -5.7904    1.0247    0.0000 C   0  0  0  0  0  0  0  0  0  0  0  0
    4.4792   -1.1628    0.0000 C   0  0  0  0  0  0  0  0  0  0  0  0
   -4.4443    1.6867    0.0000 C   0  0  0  0  0  0  0  0  0  0  0  0
    4.5790    0.3338    0.0000 C   0  0  0  0  0  0  0  0  0  0  0  0
   -4.3446    3.1834    0.0000 C   0  0  0  0  0  0  0  0  0  0  0  0
    3.3327    1.1685    0.0000 C   0  0  0  0  0  0  0  0  0  0  0  0
   -2.9986    3.8453    0.0000 C   0  0  0  0  0  0  0  0  0  0  0  0
    3.4324    2.6652    0.0000 C   0  0  0  0  0  0  0  0  0  0  0  0
   -2.8989    5.3420    0.0000 C   0  0  0  0  0  0  0  0  0  0  0  0
    4.7784    3.3272    0.0000 C   0  0  0  0  0  0  0  0  0  0  0  0
   -1.7523    3.0106    0.0000 C   0  0  0  0  0  0  0  0  0  0  0  0
    2.1861    3.4999    0.0000 C   0  0  0  0  0  0  0  0  0  0  0  0
   -0.4063    3.6726    0.0000 C   0  0  0  0  0  0  0  0  0  0  0  0
    0.8400    2.8379    0.0000 C   0  0  0  0  0  0  0  0  0  0  0  0
  1  3  1  0
  1  7  1  0
  1 13  1  0
  1 14  1  0
  2  4  1  0
  2  8  1  0
  2 15  1  0
  2 16  1  0
  3  5  1  0
  4  6  1  0
  5  9  1  0
  6 10  1  0
  7 11  2  0
  7 17  1  0
  8 12  2  0
  8 18  1  0
  9 11  1  0
 10 12  1  0
 11 19  1  0
 12 20  1  0
 17 21  2  3
 18 22  2  3
 21 23  1  0
 22 24  1  0
 23 25  1  0
 23 27  2  3
 24 26  1  0
 24 28  2  3
 27 29  1  0
 28 30  1  0
 29 31  2  3
 30 32  2  3
 31 33  1  0
 32 34  1  0
 33 35  1  0
 33 37  2  3
 34 36  1  0
 34 38  2  3
 37 39  1  0
 38 40  1  0
 39 40  2  3
M  END
>  <PUBCHEM_COMPOUND_CID>  (1) 
573

>  <PUBCHEM_COMPOUND_CANONICALIZED>  (1) 
1

>  <PUBCHEM_CACTVS_COMPLEXITY>  (1) 
1120

>  <PUBCHEM_CACTVS_HBOND_ACCEPTOR>  (1) 
0

>  <PUBCHEM_CACTVS_HBOND_DONOR>  (1) 
0

>  <PUBCHEM_CACTVS_ROTATABLE_BOND>  (1) 
10

>  <PUBCHEM_CACTVS_SUBSKEYS>  (1) 
AAADcfB8AAAAAAAAAAAAAAAAAAAAAAAAAAAgQAAAAAAAAAAAAAAAGAAAAAAADgCAAAACAAAAAACAAiBCAAAAAAAgAAAICAAAAAgIAAIAAQAAAAAAgAAIgAMAgMAPAAAAAAAAAAAAAAAAAAAAAAAAAAAAAA==

>  <PUBCHEM_IUPAC_OPENEYE_NAME>  (1) 
1,3,3-trimethyl-2-[3,7,12,16-tetramethyl-18-(2,6,6-trimethylcyclohexen-1-yl)octadeca-1,3,5,7,9,11,13,15,17-nonaenyl]cyclohexene

>  <PUBCHEM_IUPAC_CAS_NAME>  (1) 
1,3,3-trimethyl-2-[3,7,12,16-tetramethyl-18-(2,6,6-trimethyl-1-cyclohexenyl)octadeca-1,3,5,7,9,11,13,15,17-nonaenyl]cyclohexene

>  <PUBCHEM_IUPAC_NAME_MARKUP>  (1) 
1,3,3-trimethyl-2-[3,7,12,16-tetramethyl-18-(2,6,6-trimethylcyclohexen-1-yl)octadeca-1,3,5,7,9,11,13,15,17-nonaenyl]cyclohexene

>  <PUBCHEM_IUPAC_NAME>  (1) 
1,3,3-trimethyl-2-[3,7,12,16-tetramethyl-18-(2,6,6-trimethylcyclohexen-1-yl)octadeca-1,3,5,7,9,11,13,15,17-nonaenyl]cyclohexene

>  <PUBCHEM_IUPAC_SYSTEMATIC_NAME>  (1) 
1,3,3-trimethyl-2-[3,7,12,16-tetramethyl-18-(2,6,6-trimethylcyclohexen-1-yl)octadeca-1,3,5,7,9,11,13,15,17-nonaenyl]cyclohexene

>  <PUBCHEM_IUPAC_TRADITIONAL_NAME>  (1) 
1,3,3-trimethyl-2-[3,7,12,16-tetramethyl-18-(2,6,6-trimethylcyclohexen-1-yl)octadeca-1,3,5,7,9,11,13,15,17-nonaenyl]cyclohexene

>  <PUBCHEM_IUPAC_INCHI>  (1) 
InChI=1S/C40H56/c1-31(19-13-21-33(3)25-27-37-35(5)23-15-29-39(37,7)8)17-11-12-18-32(2)20-14-22-34(4)26-28-38-36(6)24-16-30-40(38,9)10/h11-14,17-22,25-28H,15-16,23-24,29-30H2,1-10H3

>  <PUBCHEM_IUPAC_INCHIKEY>  (1) 
OENHQHLEOONYIE-UHFFFAOYSA-N

>  <PUBCHEM_XLOGP3>  (1) 
13.5

>  <PUBCHEM_EXACT_MASS>  (1) 
536.438202

>  <PUBCHEM_MOLECULAR_FORMULA>  (1) 
C40H56

>  <PUBCHEM_MOLECULAR_WEIGHT>  (1) 
536.9

>  <PUBCHEM_OPENEYE_CAN_SMILES>  (1) 
CC1=C(C(CCC1)(C)C)C=CC(=CC=CC(=CC=CC=C(C)C=CC=C(C)C=CC2=C(CCCC2(C)C)C)C)C

>  <PUBCHEM_OPENEYE_ISO_SMILES>  (1) 
CC1=C(C(CCC1)(C)C)C=CC(=CC=CC(=CC=CC=C(C)C=CC=C(C)C=CC2=C(CCCC2(C)C)C)C)C

>  <PUBCHEM_CACTVS_TPSA>  (1) 
0

>  <PUBCHEM_MONOISOTOPIC_WEIGHT>  (1) 
536.438202

>  <PUBCHEM_TOTAL_CHARGE>  (1) 
0

>  <PUBCHEM_HEAVY_ATOM_COUNT>  (1) 
40

>  <PUBCHEM_ATOM_DEF_STEREO_COUNT>  (1) 
0

>  <PUBCHEM_ATOM_UDEF_STEREO_COUNT>  (1) 
0

>  <PUBCHEM_BOND_DEF_STEREO_COUNT>  (1) 
0

>  <PUBCHEM_BOND_UDEF_STEREO_COUNT>  (1) 
9

>  <PUBCHEM_ISOTOPIC_ATOM_COUNT>  (1) 
0

>  <PUBCHEM_COMPONENT_COUNT>  (1) 
1

>  <PUBCHEM_CACTVS_TAUTO_COUNT>  (1) 
-1

>  <PUBCHEM_COORDINATE_TYPE>  (1) 
1
5
255

>  <PUBCHEM_BONDANNOTATIONS>  (1) 
17  21  1
18  22  1
23  27  1
24  28  1
29  31  1
30  32  1
33  37  1
34  38  1
39  40  1

$$$$
