578
     RDKit          2D

 23 24  0  0  1  0  0  0  0  0999 V2000
   -0.1065    1.6606    0.0000 O   0  0  0  0  0  0  0  0  0  0  0  0
    1.2597   -0.5493    0.0000 O   0  0  0  0  0  0  0  0  0  0  0  0
   -2.7485    3.0817    0.0000 O   0  0  0  0  0  0  0  0  0  0  0  0
   -0.0162   -1.3381    0.0000 O   0  0  0  0  0  0  0  0  0  0  0  0
   -5.3003    1.5043    0.0000 O   0  0  0  0  0  0  0  0  0  0  0  0
   -2.5680   -2.9155    0.0000 O   0  0  0  0  0  0  0  0  0  0  0  0
   -5.2100   -1.4944    0.0000 O   0  0  0  0  0  0  0  0  0  0  0  0
    5.0873    1.8169    0.0000 O   0  0  0  0  0  0  0  0  0  0  0  0
    5.1776   -1.1817    0.0000 O   0  0  0  0  0  0  0  0  0  0  0  0
    1.3499   -3.5479    0.0000 O   0  0  0  0  0  0  0  0  0  0  0  0
    2.4453    3.2381    0.0000 N   0  0  0  0  0  0  0  0  0  0  0  0
   -1.3824    0.8718    0.0000 C   0  0  0  0  0  0  0  0  0  0  0  0
   -2.7034    1.5824    0.0000 C   0  0  0  0  0  0  0  0  0  0  0  0
   -1.3372   -0.6275    0.0000 C   0  0  0  0  0  0  0  0  0  0  0  0
   -3.9793    0.7937    0.0000 C   0  0  0  0  0  0  0  0  0  0  0  0
   -2.6131   -1.4162    0.0000 C   0  0  0  0  0  0  0  0  0  0  0  0
   -3.9341   -0.7056    0.0000 C   0  0  0  0  0  0  0  0  0  0  0  0
    1.2145    0.9500    0.0000 C   0  0  0  0  0  0  0  0  0  0  0  0
    2.4904    1.7388    0.0000 C   0  0  0  0  0  0  0  0  0  0  0  0
    3.8114    1.0282    0.0000 C   0  0  0  0  0  0  0  0  0  0  0  0
    3.8566   -0.4711    0.0000 C   0  0  0  0  0  0  0  0  0  0  0  0
    2.5807   -1.2599    0.0000 C   0  0  0  0  0  0  0  0  0  0  0  0
    2.6258   -2.7592    0.0000 C   0  0  0  0  0  0  0  0  0  0  0  0
  1 12  1  0
  1 18  1  0
  2 18  1  0
  2 22  1  0
  3 13  1  0
  4 14  1  0
  5 15  1  0
  6 16  1  0
  7 17  1  0
  8 20  1  0
  9 21  1  0
 10 23  1  0
 11 19  1  0
 12 13  1  0
 12 14  1  0
 13 15  1  0
 14 16  1  0
 15 17  1  0
 16 17  1  0
 18 19  1  0
 19 20  1  0
 20 21  1  0
 21 22  1  0
 22 23  1  0
M  END
>  <PUBCHEM_COMPOUND_CID>  (1) 
578

>  <PUBCHEM_COMPOUND_CANONICALIZED>  (1) 
1

>  <PUBCHEM_CACTVS_COMPLEXITY>  (1) 
384

>  <PUBCHEM_CACTVS_HBOND_ACCEPTOR>  (1) 
11

>  <PUBCHEM_CACTVS_HBOND_DONOR>  (1) 
9

>  <PUBCHEM_CACTVS_ROTATABLE_BOND>  (1) 
3

>  <PUBCHEM_CACTVS_SUBSKEYS>  (1) 
AAADceByPAAAAAAAAAAAAAAAAAAAAAAAAAA0QAAAAAAAAAAAAAAAHgAQCAAACDzxgAcACABABgAAAAAAAAAAAAAAAAAAAIAAAAATEAIAgAAjQAAHEAAHAAHwcA0AAAAAAAAAAAACAAAQAACAAAAAAAAAAA==

>  <PUBCHEM_IUPAC_OPENEYE_NAME>  (1) 
6-[3-amino-4,5-dihydroxy-6-(hydroxymethyl)tetrahydropyran-2-yl]oxycyclohexane-1,2,3,4,5-pentol

>  <PUBCHEM_IUPAC_CAS_NAME>  (1) 
6-[[3-amino-4,5-dihydroxy-6-(hydroxymethyl)-2-oxanyl]oxy]cyclohexane-1,2,3,4,5-pentol

>  <PUBCHEM_IUPAC_NAME_MARKUP>  (1) 
6-[3-amino-4,5-dihydroxy-6-(hydroxymethyl)oxan-2-yl]oxycyclohexane-1,2,3,4,5-pentol

>  <PUBCHEM_IUPAC_NAME>  (1) 
6-[3-amino-4,5-dihydroxy-6-(hydroxymethyl)oxan-2-yl]oxycyclohexane-1,2,3,4,5-pentol

>  <PUBCHEM_IUPAC_SYSTEMATIC_NAME>  (1) 
6-[3-azanyl-6-(hydroxymethyl)-4,5-bis(oxidanyl)oxan-2-yl]oxycyclohexane-1,2,3,4,5-pentol

>  <PUBCHEM_IUPAC_TRADITIONAL_NAME>  (1) 
6-(3-amino-4,5-dihydroxy-6-methylol-tetrahydropyran-2-yl)oxycyclohexane-1,2,3,4,5-pentol

>  <PUBCHEM_IUPAC_INCHI>  (1) 
InChI=1S/C12H23NO10/c13-3-5(16)4(15)2(1-14)22-12(3)23-11-9(20)7(18)6(17)8(19)10(11)21/h2-12,14-21H,1,13H2

>  <PUBCHEM_IUPAC_INCHIKEY>  (1) 
HEPUIGACZYVUCD-UHFFFAOYSA-N

>  <PUBCHEM_XLOGP3_AA>  (1) 
-5.6

>  <PUBCHEM_EXACT_MASS>  (1) 
341.132196

>  <PUBCHEM_MOLECULAR_FORMULA>  (1) 
C12H23NO10

>  <PUBCHEM_MOLECULAR_WEIGHT>  (1) 
341.31

>  <PUBCHEM_OPENEYE_CAN_SMILES>  (1) 
C(C1C(C(C(C(O1)OC2C(C(C(C(C2O)O)O)O)O)N)O)O)O

>  <PUBCHEM_OPENEYE_ISO_SMILES>  (1) 
C(C1C(C(C(C(O1)OC2C(C(C(C(C2O)O)O)O)O)N)O)O)O

>  <PUBCHEM_CACTVS_TPSA>  (1) 
206

>  <PUBCHEM_MONOISOTOPIC_WEIGHT>  (1) 
341.132196

>  <PUBCHEM_TOTAL_CHARGE>  (1) 
0

>  <PUBCHEM_HEAVY_ATOM_COUNT>  (1) 
23

>  <PUBCHEM_ATOM_DEF_STEREO_COUNT>  (1) 
0

>  <PUBCHEM_ATOM_UDEF_STEREO_COUNT>  (1) 
9

>  <PUBCHEM_BOND_DEF_STEREO_COUNT>  (1) 
0

>  <PUBCHEM_BOND_UDEF_STEREO_COUNT>  (1) 
0

>  <PUBCHEM_ISOTOPIC_ATOM_COUNT>  (1) 
0

>  <PUBCHEM_COMPONENT_COUNT>  (1) 
1

>  <PUBCHEM_CACTVS_TAUTO_COUNT>  (1) 
-1

>  <PUBCHEM_COORDINATE_TYPE>  (1) 
1
5
255

>  <PUBCHEM_BONDANNOTATIONS>  (1) 
18  1  3
19  11  3
22  23  3
13  3  3
14  4  3
15  5  3
16  6  3
20  8  3
21  9  3

$$$$
