579
     RDKit          2D

 26 27  0  0  1  0  0  0  0  0999 V2000
   -0.2479    1.2804    0.0000 O   0  0  0  0  0  0  0  0  0  0  0  0
    0.4697   -1.2166    0.0000 O   0  0  0  0  0  0  0  0  0  0  0  0
   -2.4072    3.3630    0.0000 O   0  0  0  0  0  0  0  0  0  0  0  0
   -0.9719   -1.6310    0.0000 O   0  0  0  0  0  0  0  0  0  0  0  0
   -5.2905    2.5344    0.0000 O   0  0  0  0  0  0  0  0  0  0  0  0
   -3.8552   -2.4596    0.0000 O   0  0  0  0  0  0  0  0  0  0  0  0
   -6.0145   -0.3769    0.0000 O   0  0  0  0  0  0  0  0  0  0  0  0
    4.7946    0.0264    0.0000 O   0  0  0  0  0  0  0  0  0  0  0  0
    4.0706   -2.8850    0.0000 O   0  0  0  0  0  0  0  0  0  0  0  0
   -0.2543   -4.1280    0.0000 O   0  0  0  0  0  0  0  0  0  0  0  0
    5.1566    1.4820    0.0000 O   0  0  0  0  0  0  0  0  0  0  0  0
    2.6354    2.1090    0.0000 N   0  0  0  0  0  0  0  0  0  0  0  0
   -1.6896    0.8660    0.0000 C   0  0  0  0  0  0  0  0  0  0  0  0
   -2.7692    1.9074    0.0000 C   0  0  0  0  0  0  0  0  0  0  0  0
   -2.0516   -0.5896    0.0000 C   0  0  0  0  0  0  0  0  0  0  0  0
   -4.2108    1.4931    0.0000 C   0  0  0  0  0  0  0  0  0  0  0  0
   -3.4932   -1.0039    0.0000 C   0  0  0  0  0  0  0  0  0  0  0  0
   -4.5728    0.0374    0.0000 C   0  0  0  0  0  0  0  0  0  0  0  0
    0.8317    0.2390    0.0000 C   0  0  0  0  0  0  0  0  0  0  0  0
    2.2734    0.6534    0.0000 C   0  0  0  0  0  0  0  0  0  0  0  0
    3.3530   -0.3880    0.0000 C   0  0  0  0  0  0  0  0  0  0  0  0
    2.9910   -1.8436    0.0000 C   0  0  0  0  0  0  0  0  0  0  0  0
    1.5494   -2.2580    0.0000 C   0  0  0  0  0  0  0  0  0  0  0  0
    1.1873   -3.7136    0.0000 C   0  0  0  0  0  0  0  0  0  0  0  0
    4.0770    2.5234    0.0000 C   0  0  0  0  0  0  0  0  0  0  0  0
    4.4390    3.9790    0.0000 C   0  0  0  0  0  0  0  0  0  0  0  0
  1 13  1  0
  1 19  1  0
  2 19  1  0
  2 23  1  0
  3 14  1  0
  4 15  1  0
  5 16  1  0
  6 17  1  0
  7 18  1  0
  8 21  1  0
  9 22  1  0
 10 24  1  0
 11 25  2  0
 12 20  1  0
 12 25  1  0
 13 14  1  0
 13 15  1  0
 14 16  1  0
 15 17  1  0
 16 18  1  0
 17 18  1  0
 19 20  1  0
 20 21  1  0
 21 22  1  0
 22 23  1  0
 23 24  1  0
 25 26  1  0
M  END
>  <PUBCHEM_COMPOUND_CID>  (1) 
579

>  <PUBCHEM_COMPOUND_CANONICALIZED>  (1) 
1

>  <PUBCHEM_CACTVS_COMPLEXITY>  (1) 
478

>  <PUBCHEM_CACTVS_HBOND_ACCEPTOR>  (1) 
11

>  <PUBCHEM_CACTVS_HBOND_DONOR>  (1) 
9

>  <PUBCHEM_CACTVS_ROTATABLE_BOND>  (1) 
4

>  <PUBCHEM_CACTVS_SUBSKEYS>  (1) 
AAADceByPAAAAAAAAAAAAAAAAAAAAAAAAAA0QAAAAAAAAAAAAAAAHgAQCAAACDzxgAcCCALABgAIAAEQEAAAAAAAAAAAAIAIAAATEAIAgAAnQAAHFgCXAAHwcA8AAAAAAAAAAAACAAAQAACAAAAAAAAAAA==

>  <PUBCHEM_IUPAC_OPENEYE_NAME>  (1) 
N-[4,5-dihydroxy-6-(hydroxymethyl)-2-(2,3,4,5,6-pentahydroxycyclohexoxy)tetrahydropyran-3-yl]acetamide

>  <PUBCHEM_IUPAC_CAS_NAME>  (1) 
N-[4,5-dihydroxy-6-(hydroxymethyl)-2-(2,3,4,5,6-pentahydroxycyclohexyl)oxy-3-oxanyl]acetamide

>  <PUBCHEM_IUPAC_NAME_MARKUP>  (1) 
<I>N</I>-[4,5-dihydroxy-6-(hydroxymethyl)-2-(2,3,4,5,6-pentahydroxycyclohexyl)oxyoxan-3-yl]acetamide

>  <PUBCHEM_IUPAC_NAME>  (1) 
N-[4,5-dihydroxy-6-(hydroxymethyl)-2-(2,3,4,5,6-pentahydroxycyclohexyl)oxyoxan-3-yl]acetamide

>  <PUBCHEM_IUPAC_SYSTEMATIC_NAME>  (1) 
N-[6-(hydroxymethyl)-4,5-bis(oxidanyl)-2-[2,3,4,5,6-pentakis(oxidanyl)cyclohexyl]oxy-oxan-3-yl]ethanamide

>  <PUBCHEM_IUPAC_TRADITIONAL_NAME>  (1) 
N-[4,5-dihydroxy-6-methylol-2-(2,3,4,5,6-pentahydroxycyclohexoxy)tetrahydropyran-3-yl]acetamide

>  <PUBCHEM_IUPAC_INCHI>  (1) 
InChI=1S/C14H25NO11/c1-3(17)15-5-7(19)6(18)4(2-16)25-14(5)26-13-11(23)9(21)8(20)10(22)12(13)24/h4-14,16,18-24H,2H2,1H3,(H,15,17)

>  <PUBCHEM_IUPAC_INCHIKEY>  (1) 
MRKTUVZZZRUSQR-UHFFFAOYSA-N

>  <PUBCHEM_XLOGP3_AA>  (1) 
-5.3

>  <PUBCHEM_EXACT_MASS>  (1) 
383.142761

>  <PUBCHEM_MOLECULAR_FORMULA>  (1) 
C14H25NO11

>  <PUBCHEM_MOLECULAR_WEIGHT>  (1) 
383.35

>  <PUBCHEM_OPENEYE_CAN_SMILES>  (1) 
CC(=O)NC1C(C(C(OC1OC2C(C(C(C(C2O)O)O)O)O)CO)O)O

>  <PUBCHEM_OPENEYE_ISO_SMILES>  (1) 
CC(=O)NC1C(C(C(OC1OC2C(C(C(C(C2O)O)O)O)O)CO)O)O

>  <PUBCHEM_CACTVS_TPSA>  (1) 
209

>  <PUBCHEM_MONOISOTOPIC_WEIGHT>  (1) 
383.142761

>  <PUBCHEM_TOTAL_CHARGE>  (1) 
0

>  <PUBCHEM_HEAVY_ATOM_COUNT>  (1) 
26

>  <PUBCHEM_ATOM_DEF_STEREO_COUNT>  (1) 
0

>  <PUBCHEM_ATOM_UDEF_STEREO_COUNT>  (1) 
9

>  <PUBCHEM_BOND_DEF_STEREO_COUNT>  (1) 
0

>  <PUBCHEM_BOND_UDEF_STEREO_COUNT>  (1) 
0

>  <PUBCHEM_ISOTOPIC_ATOM_COUNT>  (1) 
0

>  <PUBCHEM_COMPONENT_COUNT>  (1) 
1

>  <PUBCHEM_CACTVS_TAUTO_COUNT>  (1) 
-1

>  <PUBCHEM_COORDINATE_TYPE>  (1) 
1
5
255

>  <PUBCHEM_BONDANNOTATIONS>  (1) 
19  1  3
20  12  3
23  24  3
14  3  3
15  4  3
16  5  3
17  6  3
21  8  3
22  9  3

$$$$
