581
     RDKit          2D

 10  9  0  0  1  0  0  0  0  0999 V2000
   -1.6274   -2.2213    0.0000 S   0  0  0  0  0  0  0  0  0  0  0  0
   -2.9887   -0.0084    0.0000 O   0  0  0  0  0  0  0  0  0  0  0  0
   -1.7530    2.2770    0.0000 O   0  0  0  0  0  0  0  0  0  0  0  0
    2.2473   -1.3628    0.0000 O   0  0  0  0  0  0  0  0  0  0  0  0
    0.8860    0.8501    0.0000 N   0  0  0  0  0  0  0  0  0  0  0  0
   -0.3917    0.0641    0.0000 C   0  0  0  0  0  0  0  0  0  0  0  0
   -0.3498   -1.4353    0.0000 C   0  0  0  0  0  0  0  0  0  0  0  0
   -1.7111    0.7776    0.0000 C   0  0  0  0  0  0  0  0  0  0  0  0
    2.2054    0.1366    0.0000 C   0  0  0  0  0  0  0  0  0  0  0  0
    3.4830    0.9225    0.0000 C   0  0  0  0  0  0  0  0  0  0  0  0
  1  7  1  0
  2  8  1  0
  3  8  2  0
  4  9  2  0
  5  6  1  0
  5  9  1  0
  6  7  1  0
  6  8  1  0
  9 10  1  0
M  END
>  <PUBCHEM_COMPOUND_CID>  (1) 
581

>  <PUBCHEM_COMPOUND_CANONICALIZED>  (1) 
1

>  <PUBCHEM_CACTVS_COMPLEXITY>  (1) 
148

>  <PUBCHEM_CACTVS_HBOND_ACCEPTOR>  (1) 
4

>  <PUBCHEM_CACTVS_HBOND_DONOR>  (1) 
3

>  <PUBCHEM_CACTVS_ROTATABLE_BOND>  (1) 
3

>  <PUBCHEM_CACTVS_SUBSKEYS>  (1) 
AAADccBiMABAAAAAAAAAAAAAAAAAAAAAAAAAAAAAAAAAAAAAAAAAHgQQCAAACCjFwASCCALAAgQIAAGQGAAAAAAAAAAAAIGIAAACAAAAACAAQAAAFgCQAAAAAAAAAAAAAAAAAAAAAAAAAAAAAAAAAAAAAA==

>  <PUBCHEM_IUPAC_OPENEYE_NAME>  (1) 
2-acetamido-3-sulfanyl-propanoic acid

>  <PUBCHEM_IUPAC_CAS_NAME>  (1) 
2-acetamido-3-mercaptopropanoic acid

>  <PUBCHEM_IUPAC_NAME_MARKUP>  (1) 
2-acetamido-3-sulfanylpropanoic acid

>  <PUBCHEM_IUPAC_NAME>  (1) 
2-acetamido-3-sulfanylpropanoic acid

>  <PUBCHEM_IUPAC_SYSTEMATIC_NAME>  (1) 
2-acetamido-3-sulfanyl-propanoic acid

>  <PUBCHEM_IUPAC_TRADITIONAL_NAME>  (1) 
2-acetamido-3-mercapto-propionic acid

>  <PUBCHEM_IUPAC_INCHI>  (1) 
InChI=1S/C5H9NO3S/c1-3(7)6-4(2-10)5(8)9/h4,10H,2H2,1H3,(H,6,7)(H,8,9)

>  <PUBCHEM_IUPAC_INCHIKEY>  (1) 
PWKSKIMOESPYIA-UHFFFAOYSA-N

>  <PUBCHEM_XLOGP3>  (1) 
0.4

>  <PUBCHEM_EXACT_MASS>  (1) 
163.030314

>  <PUBCHEM_MOLECULAR_FORMULA>  (1) 
C5H9NO3S

>  <PUBCHEM_MOLECULAR_WEIGHT>  (1) 
163.2

>  <PUBCHEM_OPENEYE_CAN_SMILES>  (1) 
CC(=O)NC(CS)C(=O)O

>  <PUBCHEM_OPENEYE_ISO_SMILES>  (1) 
CC(=O)NC(CS)C(=O)O

>  <PUBCHEM_CACTVS_TPSA>  (1) 
67.4

>  <PUBCHEM_MONOISOTOPIC_WEIGHT>  (1) 
163.030314

>  <PUBCHEM_TOTAL_CHARGE>  (1) 
0

>  <PUBCHEM_HEAVY_ATOM_COUNT>  (1) 
10

>  <PUBCHEM_ATOM_DEF_STEREO_COUNT>  (1) 
0

>  <PUBCHEM_ATOM_UDEF_STEREO_COUNT>  (1) 
1

>  <PUBCHEM_BOND_DEF_STEREO_COUNT>  (1) 
0

>  <PUBCHEM_BOND_UDEF_STEREO_COUNT>  (1) 
0

>  <PUBCHEM_ISOTOPIC_ATOM_COUNT>  (1) 
0

>  <PUBCHEM_COMPONENT_COUNT>  (1) 
1

>  <PUBCHEM_CACTVS_TAUTO_COUNT>  (1) 
-1

>  <PUBCHEM_COORDINATE_TYPE>  (1) 
1
5
255

>  <PUBCHEM_BONDANNOTATIONS>  (1) 
6  7  3

$$$$
