583
     RDKit          2D

 14 15  0  0  1  0  0  0  0  0999 V2000
   -4.4094   -1.0709    0.0000 O   0  0  0  0  0  0  0  0  0  0  0  0
   -1.7630   -0.6949    0.0000 N   0  0  0  0  0  0  0  0  0  0  0  0
    2.8668   -0.8541    0.0000 N   0  0  0  0  0  0  0  0  0  0  0  0
   -0.8621    0.5045    0.0000 C   0  0  0  0  0  0  0  0  0  0  0  0
   -1.7244    1.7319    0.0000 C   0  0  0  0  0  0  0  0  0  0  0  0
   -3.1581    1.2911    0.0000 C   0  0  0  0  0  0  0  0  0  0  0  0
    0.6377    0.4806    0.0000 C   0  0  0  0  0  0  0  0  0  0  0  0
   -3.1820   -0.2087    0.0000 C   0  0  0  0  0  0  0  0  0  0  0  0
   -1.3222   -2.1286    0.0000 C   0  0  0  0  0  0  0  0  0  0  0  0
    1.3670   -0.8302    0.0000 C   0  0  0  0  0  0  0  0  0  0  0  0
    1.4083    1.7676    0.0000 C   0  0  0  0  0  0  0  0  0  0  0  0
    2.9081    1.7437    0.0000 C   0  0  0  0  0  0  0  0  0  0  0  0
    3.6373    0.4329    0.0000 C   0  0  0  0  0  0  0  0  0  0  0  0
    3.5960   -2.1649    0.0000 C   0  0  0  0  0  0  0  0  0  0  0  0
  1  8  2  0
  2  4  1  0
  2  8  1  0
  2  9  1  0
  3 10  2  0
  3 13  1  0
  3 14  1  0
  4  5  1  0
  4  7  1  0
  5  6  1  0
  6  8  1  0
  7 10  1  0
  7 11  2  0
 11 12  1  0
 12 13  2  0
M  CHG  1   3   1
M  END
>  <PUBCHEM_COMPOUND_CID>  (1) 
583

>  <PUBCHEM_COMPOUND_CANONICALIZED>  (1) 
1

>  <PUBCHEM_CACTVS_COMPLEXITY>  (1) 
229

>  <PUBCHEM_CACTVS_HBOND_ACCEPTOR>  (1) 
1

>  <PUBCHEM_CACTVS_HBOND_DONOR>  (1) 
0

>  <PUBCHEM_CACTVS_ROTATABLE_BOND>  (1) 
1

>  <PUBCHEM_CACTVS_SUBSKEYS>  (1) 
AAADccBzIAAAAAAAAAAAAAAAAAAAAWAAAAAsAAAAAAAAAAABgAAAHgAAAAAADCjBmgQ+gJMMEACoAjF3VACCgCAxAiAI2CE4ZJgIIPLA0ZGEIAhghgDIyAcciICOAAAAAAAAAAAAAAAAAAAAAAAAAAAAAA==

>  <PUBCHEM_IUPAC_OPENEYE_NAME>  (1) 
1-methyl-5-(1-methylpyridin-1-ium-3-yl)pyrrolidin-2-one

>  <PUBCHEM_IUPAC_CAS_NAME>  (1) 
1-methyl-5-(1-methyl-3-pyridin-1-iumyl)-2-pyrrolidinone

>  <PUBCHEM_IUPAC_NAME_MARKUP>  (1) 
1-methyl-5-(1-methylpyridin-1-ium-3-yl)pyrrolidin-2-one

>  <PUBCHEM_IUPAC_NAME>  (1) 
1-methyl-5-(1-methylpyridin-1-ium-3-yl)pyrrolidin-2-one

>  <PUBCHEM_IUPAC_SYSTEMATIC_NAME>  (1) 
1-methyl-5-(1-methylpyridin-1-ium-3-yl)pyrrolidin-2-one

>  <PUBCHEM_IUPAC_TRADITIONAL_NAME>  (1) 
1-methyl-5-(1-methylpyridin-1-ium-3-yl)-2-pyrrolidone

>  <PUBCHEM_IUPAC_INCHI>  (1) 
InChI=1S/C11H15N2O/c1-12-7-3-4-9(8-12)10-5-6-11(14)13(10)2/h3-4,7-8,10H,5-6H2,1-2H3/q+1

>  <PUBCHEM_IUPAC_INCHIKEY>  (1) 
VHRXFWHPQMABEK-UHFFFAOYSA-N

>  <PUBCHEM_XLOGP3>  (1) 
-0.2

>  <PUBCHEM_EXACT_MASS>  (1) 
191.118438

>  <PUBCHEM_MOLECULAR_FORMULA>  (1) 
C11H15N2O+

>  <PUBCHEM_MOLECULAR_WEIGHT>  (1) 
191.25

>  <PUBCHEM_OPENEYE_CAN_SMILES>  (1) 
CN1C(CCC1=O)C2=C[N+](=CC=C2)C

>  <PUBCHEM_OPENEYE_ISO_SMILES>  (1) 
CN1C(CCC1=O)C2=C[N+](=CC=C2)C

>  <PUBCHEM_CACTVS_TPSA>  (1) 
24.2

>  <PUBCHEM_MONOISOTOPIC_WEIGHT>  (1) 
191.118438

>  <PUBCHEM_TOTAL_CHARGE>  (1) 
1

>  <PUBCHEM_HEAVY_ATOM_COUNT>  (1) 
14

>  <PUBCHEM_ATOM_DEF_STEREO_COUNT>  (1) 
0

>  <PUBCHEM_ATOM_UDEF_STEREO_COUNT>  (1) 
1

>  <PUBCHEM_BOND_DEF_STEREO_COUNT>  (1) 
0

>  <PUBCHEM_BOND_UDEF_STEREO_COUNT>  (1) 
0

>  <PUBCHEM_ISOTOPIC_ATOM_COUNT>  (1) 
0

>  <PUBCHEM_COMPONENT_COUNT>  (1) 
1

>  <PUBCHEM_CACTVS_TAUTO_COUNT>  (1) 
-1

>  <PUBCHEM_COORDINATE_TYPE>  (1) 
1
5
255

>  <PUBCHEM_BONDANNOTATIONS>  (1) 
11  12  8
12  13  8
3  10  8
3  13  8
4  7  3
7  10  8
7  11  8

$$$$
