584
     RDKit          2D

 14 15  0  0  1  0  0  0  0  0999 V2000
   -0.6010    0.7379    0.0000 O   0  0  0  0  0  0  0  0  0  0  0  0
   -2.8478   -1.1807    0.0000 O   0  0  0  0  0  0  0  0  0  0  0  0
   -4.0042    0.4480    0.0000 O   0  0  0  0  0  0  0  0  0  0  0  0
   -2.0285    2.1351    0.0000 O   0  0  0  0  0  0  0  0  0  0  0  0
   -1.5552   -0.4195    0.0000 C   0  0  0  0  0  0  0  0  0  0  0  0
    1.4036   -0.9149    0.0000 C   0  0  0  0  0  0  0  0  0  0  0  0
    0.8784    0.4902    0.0000 C   0  0  0  0  0  0  0  0  0  0  0  0
   -1.0301   -1.8245    0.0000 C   0  0  0  0  0  0  0  0  0  0  0  0
    0.4493   -2.0722    0.0000 C   0  0  0  0  0  0  0  0  0  0  0  0
    2.8830   -1.1626    0.0000 C   0  0  0  0  0  0  0  0  0  0  0  0
    1.8326    1.6475    0.0000 C   0  0  0  0  0  0  0  0  0  0  0  0
   -2.5293    0.7212    0.0000 C   0  0  0  0  0  0  0  0  0  0  0  0
    3.8372   -0.0053    0.0000 C   0  0  0  0  0  0  0  0  0  0  0  0
    3.3120    1.3998    0.0000 C   0  0  0  0  0  0  0  0  0  0  0  0
  1  5  1  0
  1  7  1  0
  2  5  1  0
  3 12  1  0
  4 12  2  0
  5  8  1  0
  5 12  1  0
  6  7  2  0
  6  9  1  0
  6 10  1  0
  7 11  1  0
  8  9  2  0
 10 13  2  0
 11 14  2  0
 13 14  1  0
M  END
>  <PUBCHEM_COMPOUND_CID>  (1) 
584

>  <PUBCHEM_COMPOUND_CANONICALIZED>  (1) 
1

>  <PUBCHEM_CACTVS_COMPLEXITY>  (1) 
273

>  <PUBCHEM_CACTVS_HBOND_ACCEPTOR>  (1) 
4

>  <PUBCHEM_CACTVS_HBOND_DONOR>  (1) 
2

>  <PUBCHEM_CACTVS_ROTATABLE_BOND>  (1) 
1

>  <PUBCHEM_CACTVS_SUBSKEYS>  (1) 
AAADccBwOAAAAAAAAAAAAAAAAAAAAAAAAAAwQAAAAAAAAACBAAAAGgAACAAADASAmAAwDoAABgCIAiDSCAICCAAgIAAIiAFGCIgdJiKEMR6CeCCkwBEPuAeAwCAOAAAAAAAIAAAAAAAAABAAAAAAAAAAAA==

>  <PUBCHEM_IUPAC_OPENEYE_NAME>  (1) 
2-hydroxychromene-2-carboxylic acid

>  <PUBCHEM_IUPAC_CAS_NAME>  (1) 
2-hydroxy-1-benzopyran-2-carboxylic acid

>  <PUBCHEM_IUPAC_NAME_MARKUP>  (1) 
2-hydroxychromene-2-carboxylic acid

>  <PUBCHEM_IUPAC_NAME>  (1) 
2-hydroxychromene-2-carboxylic acid

>  <PUBCHEM_IUPAC_SYSTEMATIC_NAME>  (1) 
2-oxidanylchromene-2-carboxylic acid

>  <PUBCHEM_IUPAC_TRADITIONAL_NAME>  (1) 
2-hydroxychromene-2-carboxylic acid

>  <PUBCHEM_IUPAC_INCHI>  (1) 
InChI=1S/C10H8O4/c11-9(12)10(13)6-5-7-3-1-2-4-8(7)14-10/h1-6,13H,(H,11,12)

>  <PUBCHEM_IUPAC_INCHIKEY>  (1) 
LGYIZQLNYONEFJ-UHFFFAOYSA-N

>  <PUBCHEM_XLOGP3>  (1) 
1.8

>  <PUBCHEM_EXACT_MASS>  (1) 
192.042259

>  <PUBCHEM_MOLECULAR_FORMULA>  (1) 
C10H8O4

>  <PUBCHEM_MOLECULAR_WEIGHT>  (1) 
192.17

>  <PUBCHEM_OPENEYE_CAN_SMILES>  (1) 
C1=CC=C2C(=C1)C=CC(O2)(C(=O)O)O

>  <PUBCHEM_OPENEYE_ISO_SMILES>  (1) 
C1=CC=C2C(=C1)C=CC(O2)(C(=O)O)O

>  <PUBCHEM_CACTVS_TPSA>  (1) 
66.8

>  <PUBCHEM_MONOISOTOPIC_WEIGHT>  (1) 
192.042259

>  <PUBCHEM_TOTAL_CHARGE>  (1) 
0

>  <PUBCHEM_HEAVY_ATOM_COUNT>  (1) 
14

>  <PUBCHEM_ATOM_DEF_STEREO_COUNT>  (1) 
0

>  <PUBCHEM_ATOM_UDEF_STEREO_COUNT>  (1) 
1

>  <PUBCHEM_BOND_DEF_STEREO_COUNT>  (1) 
0

>  <PUBCHEM_BOND_UDEF_STEREO_COUNT>  (1) 
0

>  <PUBCHEM_ISOTOPIC_ATOM_COUNT>  (1) 
0

>  <PUBCHEM_COMPONENT_COUNT>  (1) 
1

>  <PUBCHEM_CACTVS_TAUTO_COUNT>  (1) 
-1

>  <PUBCHEM_COORDINATE_TYPE>  (1) 
1
5
255

>  <PUBCHEM_BONDANNOTATIONS>  (1) 
10  13  8
11  14  8
13  14  8
5  2  3
6  10  8
6  7  8
7  11  8

$$$$
