585
     RDKit          2D

 14 14  0  0  0  0  0  0  0  0999 V2000
    0.6391    1.8968    0.0000 O   0  0  0  0  0  0  0  0  0  0  0  0
   -2.7442   -2.0469    0.0000 O   0  0  0  0  0  0  0  0  0  0  0  0
   -5.0211   -0.0935    0.0000 O   0  0  0  0  0  0  0  0  0  0  0  0
   -3.3295    1.8783    0.0000 O   0  0  0  0  0  0  0  0  0  0  0  0
    1.5010   -0.5542    0.0000 C   0  0  0  0  0  0  0  0  0  0  0  0
    1.7776    0.9201    0.0000 C   0  0  0  0  0  0  0  0  0  0  0  0
    2.6394   -1.5308    0.0000 C   0  0  0  0  0  0  0  0  0  0  0  0
    0.0859   -1.0517    0.0000 C   0  0  0  0  0  0  0  0  0  0  0  0
    3.1926    1.4177    0.0000 C   0  0  0  0  0  0  0  0  0  0  0  0
    4.0545   -1.0333    0.0000 C   0  0  0  0  0  0  0  0  0  0  0  0
    4.3311    0.4410    0.0000 C   0  0  0  0  0  0  0  0  0  0  0  0
   -1.0526   -0.0750    0.0000 C   0  0  0  0  0  0  0  0  0  0  0  0
   -2.4676   -0.5726    0.0000 C   0  0  0  0  0  0  0  0  0  0  0  0
   -3.6061    0.4041    0.0000 C   0  0  0  0  0  0  0  0  0  0  0  0
  1  6  1  0
  2 13  2  0
  3 14  1  0
  4 14  2  0
  5  6  2  0
  5  7  1  0
  5  8  1  0
  6  9  1  0
  7 10  2  0
  8 12  2  3
  9 11  2  0
 10 11  1  0
 12 13  1  0
 13 14  1  0
M  END
>  <PUBCHEM_COMPOUND_CID>  (1) 
585

>  <PUBCHEM_COMPOUND_CANONICALIZED>  (1) 
1

>  <PUBCHEM_CACTVS_COMPLEXITY>  (1) 
257

>  <PUBCHEM_CACTVS_HBOND_ACCEPTOR>  (1) 
4

>  <PUBCHEM_CACTVS_HBOND_DONOR>  (1) 
2

>  <PUBCHEM_CACTVS_ROTATABLE_BOND>  (1) 
3

>  <PUBCHEM_CACTVS_SUBSKEYS>  (1) 
AAADccBwOAAAAAAAAAAAAAAAAAAAAAAAAAAwAAAAAAAAAAABAAAAGgAACAAADASAmAAwDoAAAgCIAqDSCAICAAAgIAAIiAFGCMgIJiKCERKAcAAkwBEImYeAwCAOAAAAAAAIAAAAAAAAABAAAAAAAAAAAA==

>  <PUBCHEM_IUPAC_OPENEYE_NAME>  (1) 
4-(2-hydroxyphenyl)-2-oxo-but-3-enoic acid

>  <PUBCHEM_IUPAC_CAS_NAME>  (1) 
4-(2-hydroxyphenyl)-2-oxo-3-butenoic acid

>  <PUBCHEM_IUPAC_NAME_MARKUP>  (1) 
4-(2-hydroxyphenyl)-2-oxobut-3-enoic acid

>  <PUBCHEM_IUPAC_NAME>  (1) 
4-(2-hydroxyphenyl)-2-oxobut-3-enoic acid

>  <PUBCHEM_IUPAC_SYSTEMATIC_NAME>  (1) 
4-(2-hydroxyphenyl)-2-oxidanylidene-but-3-enoic acid

>  <PUBCHEM_IUPAC_TRADITIONAL_NAME>  (1) 
4-(2-hydroxyphenyl)-2-keto-but-3-enoic acid

>  <PUBCHEM_IUPAC_INCHI>  (1) 
InChI=1S/C10H8O4/c11-8-4-2-1-3-7(8)5-6-9(12)10(13)14/h1-6,11H,(H,13,14)

>  <PUBCHEM_IUPAC_INCHIKEY>  (1) 
HMXOGGUFCBUALL-UHFFFAOYSA-N

>  <PUBCHEM_XLOGP3_AA>  (1) 
1.4

>  <PUBCHEM_EXACT_MASS>  (1) 
192.042259

>  <PUBCHEM_MOLECULAR_FORMULA>  (1) 
C10H8O4

>  <PUBCHEM_MOLECULAR_WEIGHT>  (1) 
192.17

>  <PUBCHEM_OPENEYE_CAN_SMILES>  (1) 
C1=CC=C(C(=C1)C=CC(=O)C(=O)O)O

>  <PUBCHEM_OPENEYE_ISO_SMILES>  (1) 
C1=CC=C(C(=C1)C=CC(=O)C(=O)O)O

>  <PUBCHEM_CACTVS_TPSA>  (1) 
74.6

>  <PUBCHEM_MONOISOTOPIC_WEIGHT>  (1) 
192.042259

>  <PUBCHEM_TOTAL_CHARGE>  (1) 
0

>  <PUBCHEM_HEAVY_ATOM_COUNT>  (1) 
14

>  <PUBCHEM_ATOM_DEF_STEREO_COUNT>  (1) 
0

>  <PUBCHEM_ATOM_UDEF_STEREO_COUNT>  (1) 
0

>  <PUBCHEM_BOND_DEF_STEREO_COUNT>  (1) 
0

>  <PUBCHEM_BOND_UDEF_STEREO_COUNT>  (1) 
1

>  <PUBCHEM_ISOTOPIC_ATOM_COUNT>  (1) 
0

>  <PUBCHEM_COMPONENT_COUNT>  (1) 
1

>  <PUBCHEM_CACTVS_TAUTO_COUNT>  (1) 
-1

>  <PUBCHEM_COORDINATE_TYPE>  (1) 
1
5
255

>  <PUBCHEM_BONDANNOTATIONS>  (1) 
10  11  8
5  6  8
5  7  8
6  9  8
7  10  8
8  12  1
9  11  8

$$$$
