590
     RDKit          2D

 10  9  0  0  0  0  0  0  0  0999 V2000
    4.1569    0.7500    0.0000 O   0  0  0  0  0  0  0  0  0  0  0  0
    2.8579   -1.5000    0.0000 O   0  0  0  0  0  0  0  0  0  0  0  0
   -2.3383    0.0000    0.0000 N   0  0  0  0  0  0  0  0  0  0  0  0
   -1.0392    0.7500    0.0000 C   0  0  0  0  0  0  0  0  0  0  0  0
   -3.0883    1.2990    0.0000 C   0  0  0  0  0  0  0  0  0  0  0  0
   -1.5883   -1.2990    0.0000 C   0  0  0  0  0  0  0  0  0  0  0  0
   -3.6373   -0.7500    0.0000 C   0  0  0  0  0  0  0  0  0  0  0  0
    0.2598    0.0000    0.0000 C   0  0  0  0  0  0  0  0  0  0  0  0
    1.5588    0.7500    0.0000 C   0  0  0  0  0  0  0  0  0  0  0  0
    2.8579   -0.0000    0.0000 C   0  0  0  0  0  0  0  0  0  0  0  0
  1 10  1  0
  2 10  2  0
  3  4  1  0
  3  5  1  0
  3  6  1  0
  3  7  1  0
  4  8  1  0
  8  9  2  3
  9 10  1  0
M  CHG  1   3   1
M  END
>  <PUBCHEM_COMPOUND_CID>  (1) 
590

>  <PUBCHEM_COMPOUND_CANONICALIZED>  (1) 
1

>  <PUBCHEM_CACTVS_COMPLEXITY>  (1) 
144

>  <PUBCHEM_CACTVS_HBOND_ACCEPTOR>  (1) 
2

>  <PUBCHEM_CACTVS_HBOND_DONOR>  (1) 
1

>  <PUBCHEM_CACTVS_ROTATABLE_BOND>  (1) 
3

>  <PUBCHEM_CACTVS_SUBSKEYS>  (1) 
AAADccBiMAAAAAAAAAAAAAAAAAAAAAAAAAAAAAAAAAAAAAAAAAAAHgAACAAACADBgAQCCAMAAgCIACDSCACAAAAAAAAICAAIAEAABAAAAQAAEAAAAAAAEYAAAAAAAAAAAAAAAAAAAAAAAAAAAAAAAAAAAA==

>  <PUBCHEM_IUPAC_OPENEYE_NAME>  (1) 
3-carboxyallyl(trimethyl)ammonium

>  <PUBCHEM_IUPAC_CAS_NAME>  (1) 
3-carboxyprop-2-enyl(trimethyl)ammonium

>  <PUBCHEM_IUPAC_NAME_MARKUP>  (1) 
3-carboxyprop-2-enyl(trimethyl)azanium

>  <PUBCHEM_IUPAC_NAME>  (1) 
3-carboxyprop-2-enyl(trimethyl)azanium

>  <PUBCHEM_IUPAC_SYSTEMATIC_NAME>  (1) 
trimethyl-(4-oxidanyl-4-oxidanylidene-but-2-enyl)azanium

>  <PUBCHEM_IUPAC_TRADITIONAL_NAME>  (1) 
3-carboxyallyl(trimethyl)ammonium

>  <PUBCHEM_IUPAC_INCHI>  (1) 
InChI=1S/C7H13NO2/c1-8(2,3)6-4-5-7(9)10/h4-5H,6H2,1-3H3/p+1

>  <PUBCHEM_IUPAC_INCHIKEY>  (1) 
GUYHPGUANSLONG-UHFFFAOYSA-O

>  <PUBCHEM_XLOGP3_AA>  (1) 
0.1

>  <PUBCHEM_EXACT_MASS>  (1) 
144.102454

>  <PUBCHEM_MOLECULAR_FORMULA>  (1) 
C7H14NO2+

>  <PUBCHEM_MOLECULAR_WEIGHT>  (1) 
144.19

>  <PUBCHEM_OPENEYE_CAN_SMILES>  (1) 
C[N+](C)(C)CC=CC(=O)O

>  <PUBCHEM_OPENEYE_ISO_SMILES>  (1) 
C[N+](C)(C)CC=CC(=O)O

>  <PUBCHEM_CACTVS_TPSA>  (1) 
37.3

>  <PUBCHEM_MONOISOTOPIC_WEIGHT>  (1) 
144.102454

>  <PUBCHEM_TOTAL_CHARGE>  (1) 
1

>  <PUBCHEM_HEAVY_ATOM_COUNT>  (1) 
10

>  <PUBCHEM_ATOM_DEF_STEREO_COUNT>  (1) 
0

>  <PUBCHEM_ATOM_UDEF_STEREO_COUNT>  (1) 
0

>  <PUBCHEM_BOND_DEF_STEREO_COUNT>  (1) 
0

>  <PUBCHEM_BOND_UDEF_STEREO_COUNT>  (1) 
1

>  <PUBCHEM_ISOTOPIC_ATOM_COUNT>  (1) 
0

>  <PUBCHEM_COMPONENT_COUNT>  (1) 
1

>  <PUBCHEM_CACTVS_TAUTO_COUNT>  (1) 
-1

>  <PUBCHEM_COORDINATE_TYPE>  (1) 
1
5
255

>  <PUBCHEM_BONDANNOTATIONS>  (1) 
8  9  1

$$$$
