595
     RDKit          2D

 14 13  0  0  1  0  0  0  0  0999 V2000
   -0.6446   -0.3835    0.0000 S   0  0  0  0  0  0  0  0  0  0  0  0
    0.6446    0.3835    0.0000 S   0  0  0  0  0  0  0  0  0  0  0  0
   -5.8403   -0.4514    0.0000 O   0  0  0  0  0  0  0  0  0  0  0  0
    5.8403    0.4514    0.0000 O   0  0  0  0  0  0  0  0  0  0  0  0
   -4.5708    1.8154    0.0000 O   0  0  0  0  0  0  0  0  0  0  0  0
    4.5708   -1.8154    0.0000 O   0  0  0  0  0  0  0  0  0  0  0  0
   -3.2228   -1.9173    0.0000 N   0  0  0  0  0  0  0  0  0  0  0  0
    3.2228    1.9173    0.0000 N   0  0  0  0  0  0  0  0  0  0  0  0
   -3.2424   -0.4174    0.0000 C   0  0  0  0  0  0  0  0  0  0  0  0
    3.2424    0.4174    0.0000 C   0  0  0  0  0  0  0  0  0  0  0  0
   -1.9533    0.3495    0.0000 C   0  0  0  0  0  0  0  0  0  0  0  0
    1.9533   -0.3495    0.0000 C   0  0  0  0  0  0  0  0  0  0  0  0
   -4.5511    0.3155    0.0000 C   0  0  0  0  0  0  0  0  0  0  0  0
    4.5511   -0.3155    0.0000 C   0  0  0  0  0  0  0  0  0  0  0  0
  1  2  1  0
  1 11  1  0
  2 12  1  0
  3 13  1  0
  4 14  1  0
  5 13  2  0
  6 14  2  0
  7  9  1  0
  8 10  1  0
  9 11  1  0
  9 13  1  0
 10 12  1  0
 10 14  1  0
M  END
>  <PUBCHEM_COMPOUND_CID>  (1) 
595

>  <PUBCHEM_COMPOUND_CANONICALIZED>  (1) 
1

>  <PUBCHEM_CACTVS_COMPLEXITY>  (1) 
192

>  <PUBCHEM_CACTVS_HBOND_ACCEPTOR>  (1) 
8

>  <PUBCHEM_CACTVS_HBOND_DONOR>  (1) 
4

>  <PUBCHEM_CACTVS_ROTATABLE_BOND>  (1) 
7

>  <PUBCHEM_CACTVS_SUBSKEYS>  (1) 
AAADccBjOABgAAAAAAAAAAAAAAAAAAAAAAAAAAAAAAAAAAAAAAAAHgQQCAAACCjFwASACABAAgAIAACQCAAAAAAAAAAAAIGAAAACAAAAAAAAQAAAEAAAAAAAAAAAAAAAAAAAAAAAAAAAAAAAAAAAAAAAAA==

>  <PUBCHEM_IUPAC_OPENEYE_NAME>  (1) 
2-amino-3-[(2-amino-2-carboxy-ethyl)disulfanyl]propanoic acid

>  <PUBCHEM_IUPAC_CAS_NAME>  (1) 
2-amino-3-[(2-amino-2-carboxyethyl)disulfanyl]propanoic acid

>  <PUBCHEM_IUPAC_NAME_MARKUP>  (1) 
2-amino-3-[(2-amino-2-carboxyethyl)disulfanyl]propanoic acid

>  <PUBCHEM_IUPAC_NAME>  (1) 
2-amino-3-[(2-amino-2-carboxyethyl)disulfanyl]propanoic acid

>  <PUBCHEM_IUPAC_SYSTEMATIC_NAME>  (1) 
2-azanyl-3-[(2-azanyl-3-oxidanyl-3-oxidanylidene-propyl)disulfanyl]propanoic acid

>  <PUBCHEM_IUPAC_TRADITIONAL_NAME>  (1) 
2-amino-3-[(2-amino-2-carboxy-ethyl)disulfanyl]propionic acid

>  <PUBCHEM_IUPAC_INCHI>  (1) 
InChI=1S/C6H12N2O4S2/c7-3(5(9)10)1-13-14-2-4(8)6(11)12/h3-4H,1-2,7-8H2,(H,9,10)(H,11,12)

>  <PUBCHEM_IUPAC_INCHIKEY>  (1) 
LEVWYRKDKASIDU-UHFFFAOYSA-N

>  <PUBCHEM_XLOGP3_AA>  (1) 
-6.3

>  <PUBCHEM_EXACT_MASS>  (1) 
240.023849

>  <PUBCHEM_MOLECULAR_FORMULA>  (1) 
C6H12N2O4S2

>  <PUBCHEM_MOLECULAR_WEIGHT>  (1) 
240.3

>  <PUBCHEM_OPENEYE_CAN_SMILES>  (1) 
C(C(C(=O)O)N)SSCC(C(=O)O)N

>  <PUBCHEM_OPENEYE_ISO_SMILES>  (1) 
C(C(C(=O)O)N)SSCC(C(=O)O)N

>  <PUBCHEM_CACTVS_TPSA>  (1) 
177

>  <PUBCHEM_MONOISOTOPIC_WEIGHT>  (1) 
240.023849

>  <PUBCHEM_TOTAL_CHARGE>  (1) 
0

>  <PUBCHEM_HEAVY_ATOM_COUNT>  (1) 
14

>  <PUBCHEM_ATOM_DEF_STEREO_COUNT>  (1) 
0

>  <PUBCHEM_ATOM_UDEF_STEREO_COUNT>  (1) 
2

>  <PUBCHEM_BOND_DEF_STEREO_COUNT>  (1) 
0

>  <PUBCHEM_BOND_UDEF_STEREO_COUNT>  (1) 
0

>  <PUBCHEM_ISOTOPIC_ATOM_COUNT>  (1) 
0

>  <PUBCHEM_COMPONENT_COUNT>  (1) 
1

>  <PUBCHEM_CACTVS_TAUTO_COUNT>  (1) 
-1

>  <PUBCHEM_COORDINATE_TYPE>  (1) 
1
5
255

>  <PUBCHEM_BONDANNOTATIONS>  (1) 
9  7  3
10  8  3

$$$$
