597
     RDKit          2D

  8  8  0  0  0  0  0  0  0  0999 V2000
    2.5981   -1.1250    0.0000 O   0  0  0  0  0  0  0  0  0  0  0  0
    0.0000   -1.1250    0.0000 N   0  0  0  0  0  0  0  0  0  0  0  0
   -2.5981   -1.1250    0.0000 N   0  0  0  0  0  0  0  0  0  0  0  0
    1.2990    1.1250    0.0000 N   0  0  0  0  0  0  0  0  0  0  0  0
   -1.2990   -0.3750    0.0000 C   0  0  0  0  0  0  0  0  0  0  0  0
   -1.2990    1.1250    0.0000 C   0  0  0  0  0  0  0  0  0  0  0  0
    1.2990   -0.3750    0.0000 C   0  0  0  0  0  0  0  0  0  0  0  0
   -0.0000    1.8750    0.0000 C   0  0  0  0  0  0  0  0  0  0  0  0
  1  7  2  0
  2  5  1  0
  2  7  1  0
  3  5  1  0
  4  7  1  0
  4  8  2  0
  5  6  2  0
  6  8  1  0
M  END
>  <PUBCHEM_COMPOUND_CID>  (1) 
597

>  <PUBCHEM_COMPOUND_CANONICALIZED>  (1) 
1

>  <PUBCHEM_CACTVS_COMPLEXITY>  (1) 
170

>  <PUBCHEM_CACTVS_HBOND_ACCEPTOR>  (1) 
2

>  <PUBCHEM_CACTVS_HBOND_DONOR>  (1) 
2

>  <PUBCHEM_CACTVS_ROTATABLE_BOND>  (1) 
0

>  <PUBCHEM_CACTVS_SUBSKEYS>  (1) 
AAADcYBjIAAAAAAAAAAAAAAAAAAAAAAAAAAgAAAAAAAAAAAAAAAAHgAQAAAACADBAAQBAALAAACoADBjVAAAAAAAAgAAAAAQABCAAAAAAAAAAAAAAQAAAAAAAAAAAAAAAAAAAAAAAAAAAAAAAAAAAAAAAA==

>  <PUBCHEM_IUPAC_OPENEYE_NAME>  (1) 
6-amino-1H-pyrimidin-2-one

>  <PUBCHEM_IUPAC_CAS_NAME>  (1) 
6-amino-1H-pyrimidin-2-one

>  <PUBCHEM_IUPAC_NAME_MARKUP>  (1) 
6-amino-1<I>H</I>-pyrimidin-2-one

>  <PUBCHEM_IUPAC_NAME>  (1) 
6-amino-1H-pyrimidin-2-one

>  <PUBCHEM_IUPAC_SYSTEMATIC_NAME>  (1) 
6-azanyl-1H-pyrimidin-2-one

>  <PUBCHEM_IUPAC_TRADITIONAL_NAME>  (1) 
6-amino-1H-pyrimidin-2-one

>  <PUBCHEM_IUPAC_INCHI>  (1) 
InChI=1S/C4H5N3O/c5-3-1-2-6-4(8)7-3/h1-2H,(H3,5,6,7,8)

>  <PUBCHEM_IUPAC_INCHIKEY>  (1) 
OPTASPLRGRRNAP-UHFFFAOYSA-N

>  <PUBCHEM_XLOGP3>  (1) 
-1.7

>  <PUBCHEM_EXACT_MASS>  (1) 
111.043262

>  <PUBCHEM_MOLECULAR_FORMULA>  (1) 
C4H5N3O

>  <PUBCHEM_MOLECULAR_WEIGHT>  (1) 
111.1

>  <PUBCHEM_OPENEYE_CAN_SMILES>  (1) 
C1=C(NC(=O)N=C1)N

>  <PUBCHEM_OPENEYE_ISO_SMILES>  (1) 
C1=C(NC(=O)N=C1)N

>  <PUBCHEM_CACTVS_TPSA>  (1) 
67.5

>  <PUBCHEM_MONOISOTOPIC_WEIGHT>  (1) 
111.043262

>  <PUBCHEM_TOTAL_CHARGE>  (1) 
0

>  <PUBCHEM_HEAVY_ATOM_COUNT>  (1) 
8

>  <PUBCHEM_ATOM_DEF_STEREO_COUNT>  (1) 
0

>  <PUBCHEM_ATOM_UDEF_STEREO_COUNT>  (1) 
0

>  <PUBCHEM_BOND_DEF_STEREO_COUNT>  (1) 
0

>  <PUBCHEM_BOND_UDEF_STEREO_COUNT>  (1) 
0

>  <PUBCHEM_ISOTOPIC_ATOM_COUNT>  (1) 
0

>  <PUBCHEM_COMPONENT_COUNT>  (1) 
1

>  <PUBCHEM_CACTVS_TAUTO_COUNT>  (1) 
-1

>  <PUBCHEM_COORDINATE_TYPE>  (1) 
1
5
255

>  <PUBCHEM_BONDANNOTATIONS>  (1) 
2  5  8
2  7  8
4  7  8
4  8  8
5  6  8
6  8  8

$$$$
