599
     RDKit          2D

 11 10  0  0  1  0  0  0  0  0999 V2000
    1.2990    1.8409    0.0000 O   0  0  0  0  0  0  0  0  0  0  0  0
    3.8971    0.3409    0.0000 O   0  0  0  0  0  0  0  0  0  0  0  0
   -1.2990    1.8409    0.0000 O   0  0  0  0  0  0  0  0  0  0  0  0
    2.5981   -1.9091    0.0000 O   0  0  0  0  0  0  0  0  0  0  0  0
   -3.8971    0.3409    0.0000 O   0  0  0  0  0  0  0  0  0  0  0  0
   -2.5981   -1.9091    0.0000 O   0  0  0  0  0  0  0  0  0  0  0  0
    1.2990    0.3409    0.0000 C   0  0  0  0  0  0  0  0  0  0  0  0
   -0.0000   -0.4091    0.0000 C   0  0  0  0  0  0  0  0  0  0  0  0
   -1.2990    0.3409    0.0000 C   0  0  0  0  0  0  0  0  0  0  0  0
    2.5981   -0.4091    0.0000 C   0  0  0  0  0  0  0  0  0  0  0  0
   -2.5981   -0.4091    0.0000 C   0  0  0  0  0  0  0  0  0  0  0  0
  1  7  1  0
  2 10  1  0
  3  9  2  0
  4 10  2  0
  5 11  1  0
  6 11  2  0
  7  8  1  0
  7 10  1  0
  8  9  1  0
  9 11  1  0
M  END
>  <PUBCHEM_COMPOUND_CID>  (1) 
599

>  <PUBCHEM_COMPOUND_CANONICALIZED>  (1) 
1

>  <PUBCHEM_CACTVS_COMPLEXITY>  (1) 
195

>  <PUBCHEM_CACTVS_HBOND_ACCEPTOR>  (1) 
6

>  <PUBCHEM_CACTVS_HBOND_DONOR>  (1) 
3

>  <PUBCHEM_CACTVS_ROTATABLE_BOND>  (1) 
4

>  <PUBCHEM_CACTVS_SUBSKEYS>  (1) 
AAADcYBgOAAAAAAAAAAAAAAAAAAAAAAAAAAAAAAAAAAAAAAAAAAAGgAACAAACBSggAIACAAAAgAIAICQCAIAAAAAAAAAAAFAAAABEBYAAAAAQAAEIAABAADLJgAAAAAAAAAAAAAAAAAAAAAAAAAAAAAAAA==

>  <PUBCHEM_IUPAC_OPENEYE_NAME>  (1) 
2-hydroxy-4-oxo-pentanedioic acid

>  <PUBCHEM_IUPAC_CAS_NAME>  (1) 
2-hydroxy-4-oxopentanedioic acid

>  <PUBCHEM_IUPAC_NAME_MARKUP>  (1) 
2-hydroxy-4-oxopentanedioic acid

>  <PUBCHEM_IUPAC_NAME>  (1) 
2-hydroxy-4-oxopentanedioic acid

>  <PUBCHEM_IUPAC_SYSTEMATIC_NAME>  (1) 
2-oxidanyl-4-oxidanylidene-pentanedioic acid

>  <PUBCHEM_IUPAC_TRADITIONAL_NAME>  (1) 
2-hydroxy-4-keto-glutaric acid

>  <PUBCHEM_IUPAC_INCHI>  (1) 
InChI=1S/C5H6O6/c6-2(4(8)9)1-3(7)5(10)11/h2,6H,1H2,(H,8,9)(H,10,11)

>  <PUBCHEM_IUPAC_INCHIKEY>  (1) 
WXSKVKPSMAHCSG-UHFFFAOYSA-N

>  <PUBCHEM_XLOGP3>  (1) 
-1.4

>  <PUBCHEM_EXACT_MASS>  (1) 
162.016438

>  <PUBCHEM_MOLECULAR_FORMULA>  (1) 
C5H6O6

>  <PUBCHEM_MOLECULAR_WEIGHT>  (1) 
162.1

>  <PUBCHEM_OPENEYE_CAN_SMILES>  (1) 
C(C(C(=O)O)O)C(=O)C(=O)O

>  <PUBCHEM_OPENEYE_ISO_SMILES>  (1) 
C(C(C(=O)O)O)C(=O)C(=O)O

>  <PUBCHEM_CACTVS_TPSA>  (1) 
112

>  <PUBCHEM_MONOISOTOPIC_WEIGHT>  (1) 
162.016438

>  <PUBCHEM_TOTAL_CHARGE>  (1) 
0

>  <PUBCHEM_HEAVY_ATOM_COUNT>  (1) 
11

>  <PUBCHEM_ATOM_DEF_STEREO_COUNT>  (1) 
0

>  <PUBCHEM_ATOM_UDEF_STEREO_COUNT>  (1) 
1

>  <PUBCHEM_BOND_DEF_STEREO_COUNT>  (1) 
0

>  <PUBCHEM_BOND_UDEF_STEREO_COUNT>  (1) 
0

>  <PUBCHEM_ISOTOPIC_ATOM_COUNT>  (1) 
0

>  <PUBCHEM_COMPONENT_COUNT>  (1) 
1

>  <PUBCHEM_CACTVS_TAUTO_COUNT>  (1) 
-1

>  <PUBCHEM_COORDINATE_TYPE>  (1) 
1
5
255

>  <PUBCHEM_BONDANNOTATIONS>  (1) 
7  1  3

$$$$
