60
     RDKit          2D

 37 38  0  0  1  0  0  0  0  0999 V2000
   -0.4911    3.2967    0.0000 P   0  0  0  0  0  0  0  0  0  0  0  0
   -3.0880    3.3762    0.0000 P   0  0  0  0  0  0  0  0  0  0  0  0
   -4.5930   -3.3309    0.0000 P   0  0  0  0  0  0  0  0  0  0  0  0
    3.4023    0.7864    0.0000 O   0  0  0  0  0  0  0  0  0  0  0  0
    0.9801   -2.2464    0.0000 O   0  0  0  0  0  0  0  0  0  0  0  0
    4.1499   -3.0223    0.0000 O   0  0  0  0  0  0  0  0  0  0  0  0
    0.7844    2.5073    0.0000 O   0  0  0  0  0  0  0  0  0  0  0  0
   -5.8685   -2.5415    0.0000 O   0  0  0  0  0  0  0  0  0  0  0  0
   -4.4093    2.6663    0.0000 O   0  0  0  0  0  0  0  0  0  0  0  0
   -1.7666    4.0861    0.0000 O   0  0  0  0  0  0  0  0  0  0  0  0
   -7.0521    1.2465    0.0000 O   0  0  0  0  0  0  0  0  0  0  0  0
    6.0596   -2.8384    0.0000 O   0  0  0  0  0  0  0  0  0  0  0  0
   -8.1113   -2.2718    0.0000 O   0  0  0  0  0  0  0  0  0  0  0  0
    0.2983    4.5722    0.0000 O   0  0  0  0  0  0  0  0  0  0  0  0
   -1.2805    2.0212    0.0000 O   0  0  0  0  0  0  0  0  0  0  0  0
   -2.3781    2.0548    0.0000 O   0  0  0  0  0  0  0  0  0  0  0  0
   -3.8036   -2.0554    0.0000 O   0  0  0  0  0  0  0  0  0  0  0  0
   -3.3175   -4.1203    0.0000 O   0  0  0  0  0  0  0  0  0  0  0  0
   -3.7979    4.6976    0.0000 O   0  0  0  0  0  0  0  0  0  0  0  0
   -5.3824   -4.6064    0.0000 O   0  0  0  0  0  0  0  0  0  0  0  0
    5.8673   -0.2474    0.0000 N   0  0  0  0  0  0  0  0  0  0  0  0
    8.2073   -1.3763    0.0000 N   0  0  0  0  0  0  0  0  0  0  0  0
   10.3549    0.0858    0.0000 N   0  0  0  0  0  0  0  0  0  0  0  0
    2.1250   -1.2773    0.0000 C   0  0  0  0  0  0  0  0  0  0  0  0
    3.5820   -1.6339    0.0000 C   0  0  0  0  0  0  0  0  0  0  0  0
    2.0139    0.2186    0.0000 C   0  0  0  0  0  0  0  0  0  0  0  0
    4.3714   -0.3585    0.0000 C   0  0  0  0  0  0  0  0  0  0  0  0
    0.7385    1.0080    0.0000 C   0  0  0  0  0  0  0  0  0  0  0  0
   -5.8225   -1.0422    0.0000 C   0  0  0  0  0  0  0  0  0  0  0  0
    6.5190    1.1036    0.0000 C   0  0  0  0  0  0  0  0  0  0  0  0
   -5.7766    0.4571    0.0000 C   0  0  0  0  0  0  0  0  0  0  0  0
    6.7114   -1.4873    0.0000 C   0  0  0  0  0  0  0  0  0  0  0  0
   -7.3218   -0.9963    0.0000 C   0  0  0  0  0  0  0  0  0  0  0  0
   -4.4553    1.1670    0.0000 C   0  0  0  0  0  0  0  0  0  0  0  0
   -4.3233   -1.0881    0.0000 C   0  0  0  0  0  0  0  0  0  0  0  0
    8.0149    1.2147    0.0000 C   0  0  0  0  0  0  0  0  0  0  0  0
    8.8590   -0.0253    0.0000 C   0  0  0  0  0  0  0  0  0  0  0  0
  1  7  1  0
  1 10  1  0
  1 14  1  0
  1 15  2  0
  2  9  1  0
  2 10  1  0
  2 16  1  0
  2 19  2  0
  3  8  1  0
  3 17  1  0
  3 18  1  0
  3 20  2  0
  4 26  1  0
  4 27  1  0
  5 24  1  0
  6 25  1  0
  7 28  1  0
  8 29  1  0
  9 34  1  0
 11 31  1  0
 12 32  2  0
 13 33  1  0
 21 27  1  0
 21 30  1  0
 21 32  1  0
 22 32  1  0
 22 37  2  0
 23 37  1  0
 24 25  1  0
 24 26  1  0
 25 27  1  0
 26 28  1  0
 29 31  1  0
 29 33  1  0
 29 35  1  0
 30 36  2  0
 31 34  1  0
 36 37  1  0
M  END
>  <PUBCHEM_COMPOUND_CID>  (1) 
60

>  <PUBCHEM_COMPOUND_CANONICALIZED>  (1) 
1

>  <PUBCHEM_CACTVS_COMPLEXITY>  (1) 
1050

>  <PUBCHEM_CACTVS_HBOND_ACCEPTOR>  (1) 
17

>  <PUBCHEM_CACTVS_HBOND_DONOR>  (1) 
9

>  <PUBCHEM_CACTVS_ROTATABLE_BOND>  (1) 
13

>  <PUBCHEM_CACTVS_SUBSKEYS>  (1) 
AAADceBzPgMAAAAAAAAAAAAAAAAAASAAAAAgAAAAAAAAAAAAAAAAHgAQCCAADFThgAYDAANABxCoQCJmdICAAAEAAgAIAAAYABCDEAIAgAAOQAAHFgITAADwMAIIAAAAAAAAAAAAAAAAAAAAAAAAAAAAAA==

>  <PUBCHEM_IUPAC_OPENEYE_NAME>  (1) 
[[5-(4-amino-2-oxo-pyrimidin-1-yl)-3,4-dihydroxy-tetrahydrofuran-2-yl]methoxy-hydroxy-phosphoryl] (2,4-dihydroxy-3-methyl-3-phosphonooxy-butyl) hydrogen phosphate

>  <PUBCHEM_IUPAC_CAS_NAME>  (1) 
[[5-(4-amino-2-oxo-1-pyrimidinyl)-3,4-dihydroxy-2-oxolanyl]methoxy-hydroxyphosphoryl] (2,4-dihydroxy-3-methyl-3-phosphonooxybutyl) hydrogen phosphate

>  <PUBCHEM_IUPAC_NAME_MARKUP>  (1) 
[[5-(4-amino-2-oxopyrimidin-1-yl)-3,4-dihydroxyoxolan-2-yl]methoxy-hydroxyphosphoryl] (2,4-dihydroxy-3-methyl-3-phosphonooxybutyl) hydrogen phosphate

>  <PUBCHEM_IUPAC_NAME>  (1) 
[[5-(4-amino-2-oxopyrimidin-1-yl)-3,4-dihydroxyoxolan-2-yl]methoxy-hydroxyphosphoryl] (2,4-dihydroxy-3-methyl-3-phosphonooxybutyl) hydrogen phosphate

>  <PUBCHEM_IUPAC_SYSTEMATIC_NAME>  (1) 
[[5-(4-azanyl-2-oxidanylidene-pyrimidin-1-yl)-3,4-bis(oxidanyl)oxolan-2-yl]methoxy-oxidanyl-phosphoryl] [3-methyl-2,4-bis(oxidanyl)-3-phosphonooxy-butyl] hydrogen phosphate

>  <PUBCHEM_IUPAC_TRADITIONAL_NAME>  (1) 
[[5-(4-amino-2-keto-pyrimidin-1-yl)-3,4-dihydroxy-tetrahydrofuran-2-yl]methoxy-hydroxy-phosphoryl] (2,4-dihydroxy-3-methyl-3-phosphonooxy-butyl) hydrogen phosphate

>  <PUBCHEM_IUPAC_INCHI>  (1) 
InChI=1S/C14H26N3O17P3/c1-14(6-18,33-35(23,24)25)8(19)5-31-37(28,29)34-36(26,27)30-4-7-10(20)11(21)12(32-7)17-3-2-9(15)16-13(17)22/h2-3,7-8,10-12,18-21H,4-6H2,1H3,(H,26,27)(H,28,29)(H2,15,16,22)(H2,23,24,25)

>  <PUBCHEM_IUPAC_INCHIKEY>  (1) 
HTJXTKBIUVFUAR-UHFFFAOYSA-N

>  <PUBCHEM_XLOGP3_AA>  (1) 
-7.7

>  <PUBCHEM_EXACT_MASS>  (1) 
601.047507

>  <PUBCHEM_MOLECULAR_FORMULA>  (1) 
C14H26N3O17P3

>  <PUBCHEM_MOLECULAR_WEIGHT>  (1) 
601.29

>  <PUBCHEM_OPENEYE_CAN_SMILES>  (1) 
CC(CO)(C(COP(=O)(O)OP(=O)(O)OCC1C(C(C(O1)N2C=CC(=NC2=O)N)O)O)O)OP(=O)(O)O

>  <PUBCHEM_OPENEYE_ISO_SMILES>  (1) 
CC(CO)(C(COP(=O)(O)OP(=O)(O)OCC1C(C(C(O1)N2C=CC(=NC2=O)N)O)O)O)OP(=O)(O)O

>  <PUBCHEM_CACTVS_TPSA>  (1) 
318

>  <PUBCHEM_MONOISOTOPIC_WEIGHT>  (1) 
601.047507

>  <PUBCHEM_TOTAL_CHARGE>  (1) 
0

>  <PUBCHEM_HEAVY_ATOM_COUNT>  (1) 
37

>  <PUBCHEM_ATOM_DEF_STEREO_COUNT>  (1) 
0

>  <PUBCHEM_ATOM_UDEF_STEREO_COUNT>  (1) 
6

>  <PUBCHEM_BOND_DEF_STEREO_COUNT>  (1) 
0

>  <PUBCHEM_BOND_UDEF_STEREO_COUNT>  (1) 
0

>  <PUBCHEM_ISOTOPIC_ATOM_COUNT>  (1) 
0

>  <PUBCHEM_COMPONENT_COUNT>  (1) 
1

>  <PUBCHEM_CACTVS_TAUTO_COUNT>  (1) 
-1

>  <PUBCHEM_COORDINATE_TYPE>  (1) 
1
5
255

>  <PUBCHEM_BONDANNOTATIONS>  (1) 
31  11  3
27  21  3
21  30  8
21  32  8
22  32  8
22  37  8
26  28  3
29  35  3
30  36  8
36  37  8
24  5  3
25  6  3

$$$$
