600
     RDKit          2D

 16 16  0  0  1  0  0  0  0  0999 V2000
   -3.8466   -0.1752    0.0000 P   0  0  0  0  0  0  0  0  0  0  0  0
    0.5327   -1.2105    0.0000 O   0  0  0  0  0  0  0  0  0  0  0  0
    0.6994    2.7546    0.0000 O   0  0  0  0  0  0  0  0  0  0  0  0
    3.6189    2.0644    0.0000 O   0  0  0  0  0  0  0  0  0  0  0  0
    4.4809   -0.8091    0.0000 O   0  0  0  0  0  0  0  0  0  0  0  0
   -2.3869   -0.5203    0.0000 O   0  0  0  0  0  0  0  0  0  0  0  0
    2.4234   -2.9923    0.0000 O   0  0  0  0  0  0  0  0  0  0  0  0
   -3.5015    1.2846    0.0000 O   0  0  0  0  0  0  0  0  0  0  0  0
   -5.3064    0.1699    0.0000 O   0  0  0  0  0  0  0  0  0  0  0  0
   -4.1917   -1.6349    0.0000 O   0  0  0  0  0  0  0  0  0  0  0  0
    1.1304    1.3179    0.0000 C   0  0  0  0  0  0  0  0  0  0  0  0
    0.1017    0.2263    0.0000 C   0  0  0  0  0  0  0  0  0  0  0  0
    2.5902    0.9728    0.0000 C   0  0  0  0  0  0  0  0  0  0  0  0
    3.0212   -0.4640    0.0000 C   0  0  0  0  0  0  0  0  0  0  0  0
   -1.3581    0.5714    0.0000 C   0  0  0  0  0  0  0  0  0  0  0  0
    1.9924   -1.5556    0.0000 C   0  0  0  0  0  0  0  0  0  0  0  0
  1  6  1  0
  1  8  1  0
  1  9  1  0
  1 10  2  0
  2 12  1  0
  2 16  1  0
  3 11  1  0
  4 13  1  0
  5 14  1  0
  6 15  1  0
  7 16  2  0
 11 12  1  0
 11 13  1  0
 12 15  1  0
 13 14  1  0
 14 16  1  0
M  END
>  <PUBCHEM_COMPOUND_CID>  (1) 
600

>  <PUBCHEM_COMPOUND_CANONICALIZED>  (1) 
1

>  <PUBCHEM_CACTVS_COMPLEXITY>  (1) 
311

>  <PUBCHEM_CACTVS_HBOND_ACCEPTOR>  (1) 
9

>  <PUBCHEM_CACTVS_HBOND_DONOR>  (1) 
5

>  <PUBCHEM_CACTVS_ROTATABLE_BOND>  (1) 
3

>  <PUBCHEM_CACTVS_SUBSKEYS>  (1) 
AAADccBgPAIAAAAAAAAAAAAAAAAAAAAAAAAkAAAAAAAAAAAAAAAAGgAACCAACBSggAIACAAABxAIQACQCIIAAAAAAAAAAAFAAAABEBYAAAACQAAFIAADAAHKbARAAAAAAAAAAAAAAAAAAAAAAAAAAAAAAA==

>  <PUBCHEM_IUPAC_OPENEYE_NAME>  (1) 
(3,4,5-trihydroxy-6-oxo-tetrahydropyran-2-yl)methyl dihydrogen phosphate

>  <PUBCHEM_IUPAC_CAS_NAME>  (1) 
(3,4,5-trihydroxy-6-oxo-2-oxanyl)methyl dihydrogen phosphate

>  <PUBCHEM_IUPAC_NAME_MARKUP>  (1) 
(3,4,5-trihydroxy-6-oxooxan-2-yl)methyl dihydrogen phosphate

>  <PUBCHEM_IUPAC_NAME>  (1) 
(3,4,5-trihydroxy-6-oxooxan-2-yl)methyl dihydrogen phosphate

>  <PUBCHEM_IUPAC_SYSTEMATIC_NAME>  (1) 
[3,4,5-tris(oxidanyl)-6-oxidanylidene-oxan-2-yl]methyl dihydrogen phosphate

>  <PUBCHEM_IUPAC_TRADITIONAL_NAME>  (1) 
(3,4,5-trihydroxy-6-keto-tetrahydropyran-2-yl)methyl dihydrogen phosphate

>  <PUBCHEM_IUPAC_INCHI>  (1) 
InChI=1S/C6H11O9P/c7-3-2(1-14-16(11,12)13)15-6(10)5(9)4(3)8/h2-5,7-9H,1H2,(H2,11,12,13)

>  <PUBCHEM_IUPAC_INCHIKEY>  (1) 
IJOJIVNDFQSGAB-UHFFFAOYSA-N

>  <PUBCHEM_XLOGP3_AA>  (1) 
-3.7

>  <PUBCHEM_EXACT_MASS>  (1) 
258.014069

>  <PUBCHEM_MOLECULAR_FORMULA>  (1) 
C6H11O9P

>  <PUBCHEM_MOLECULAR_WEIGHT>  (1) 
258.12

>  <PUBCHEM_OPENEYE_CAN_SMILES>  (1) 
C(C1C(C(C(C(=O)O1)O)O)O)OP(=O)(O)O

>  <PUBCHEM_OPENEYE_ISO_SMILES>  (1) 
C(C1C(C(C(C(=O)O1)O)O)O)OP(=O)(O)O

>  <PUBCHEM_CACTVS_TPSA>  (1) 
154

>  <PUBCHEM_MONOISOTOPIC_WEIGHT>  (1) 
258.014069

>  <PUBCHEM_TOTAL_CHARGE>  (1) 
0

>  <PUBCHEM_HEAVY_ATOM_COUNT>  (1) 
16

>  <PUBCHEM_ATOM_DEF_STEREO_COUNT>  (1) 
0

>  <PUBCHEM_ATOM_UDEF_STEREO_COUNT>  (1) 
4

>  <PUBCHEM_BOND_DEF_STEREO_COUNT>  (1) 
0

>  <PUBCHEM_BOND_UDEF_STEREO_COUNT>  (1) 
0

>  <PUBCHEM_ISOTOPIC_ATOM_COUNT>  (1) 
0

>  <PUBCHEM_COMPONENT_COUNT>  (1) 
1

>  <PUBCHEM_CACTVS_TAUTO_COUNT>  (1) 
-1

>  <PUBCHEM_COORDINATE_TYPE>  (1) 
1
5
255

>  <PUBCHEM_BONDANNOTATIONS>  (1) 
12  15  3
11  3  3
13  4  3
14  5  3

$$$$
