603
     RDKit          2D

 16 15  0  0  1  0  0  0  0  0999 V2000
   -4.3058   -0.1763    0.0000 P   0  0  0  0  0  0  0  0  0  0  0  0
    0.8696   -1.7463    0.0000 O   0  0  0  0  0  0  0  0  0  0  0  0
   -0.3787    2.0209    0.0000 O   0  0  0  0  0  0  0  0  0  0  0  0
   -2.9968    0.5561    0.0000 O   0  0  0  0  0  0  0  0  0  0  0  0
    2.2191    1.9859    0.0000 O   0  0  0  0  0  0  0  0  0  0  0  0
    3.4675   -1.7813    0.0000 O   0  0  0  0  0  0  0  0  0  0  0  0
    6.0855   -0.3165    0.0000 O   0  0  0  0  0  0  0  0  0  0  0  0
   -3.5734   -1.4853    0.0000 O   0  0  0  0  0  0  0  0  0  0  0  0
   -5.6149   -0.9087    0.0000 O   0  0  0  0  0  0  0  0  0  0  0  0
   -5.0382    1.1327    0.0000 O   0  0  0  0  0  0  0  0  0  0  0  0
    0.8898   -0.2464    0.0000 C   0  0  0  0  0  0  0  0  0  0  0  0
   -0.3990    0.5211    0.0000 C   0  0  0  0  0  0  0  0  0  0  0  0
    2.1989    0.4860    0.0000 C   0  0  0  0  0  0  0  0  0  0  0  0
   -1.7080   -0.2114    0.0000 C   0  0  0  0  0  0  0  0  0  0  0  0
    3.4877   -0.2814    0.0000 C   0  0  0  0  0  0  0  0  0  0  0  0
    4.7967    0.4510    0.0000 C   0  0  0  0  0  0  0  0  0  0  0  0
  1  4  1  0
  1  8  1  0
  1  9  1  0
  1 10  2  0
  2 11  1  0
  3 12  1  0
  4 14  1  0
  5 13  1  0
  6 15  2  0
  7 16  1  0
 11 12  1  0
 11 13  1  0
 12 14  1  0
 13 15  1  0
 15 16  1  0
M  END
>  <PUBCHEM_COMPOUND_CID>  (1) 
603

>  <PUBCHEM_COMPOUND_CANONICALIZED>  (1) 
1

>  <PUBCHEM_CACTVS_COMPLEXITY>  (1) 
273

>  <PUBCHEM_CACTVS_HBOND_ACCEPTOR>  (1) 
9

>  <PUBCHEM_CACTVS_HBOND_DONOR>  (1) 
6

>  <PUBCHEM_CACTVS_ROTATABLE_BOND>  (1) 
7

>  <PUBCHEM_CACTVS_SUBSKEYS>  (1) 
AAADccBgPAIAAAAAAAAAAAAAAAAAAAAAAAAAAAAAAAAAAAAAAAAAGgAACCAACBSggAIAAAAAAxAIQIAQAIIAAAAAAAAAAAFAAAABEBYAAAAAQAAFIAABAAHKZAQAAAAAAAAAAAAAAAAAAAAAAAAAAAAAAA==

>  <PUBCHEM_IUPAC_OPENEYE_NAME>  (1) 
(2,3,4,6-tetrahydroxy-5-oxo-hexyl) dihydrogen phosphate

>  <PUBCHEM_IUPAC_CAS_NAME>  (1) 
(2,3,4,6-tetrahydroxy-5-oxohexyl) dihydrogen phosphate

>  <PUBCHEM_IUPAC_NAME_MARKUP>  (1) 
(2,3,4,6-tetrahydroxy-5-oxohexyl) dihydrogen phosphate

>  <PUBCHEM_IUPAC_NAME>  (1) 
(2,3,4,6-tetrahydroxy-5-oxohexyl) dihydrogen phosphate

>  <PUBCHEM_IUPAC_SYSTEMATIC_NAME>  (1) 
[2,3,4,6-tetrakis(oxidanyl)-5-oxidanylidene-hexyl] dihydrogen phosphate

>  <PUBCHEM_IUPAC_TRADITIONAL_NAME>  (1) 
(2,3,4,6-tetrahydroxy-5-keto-hexyl) dihydrogen phosphate

>  <PUBCHEM_IUPAC_INCHI>  (1) 
InChI=1S/C6H13O9P/c7-1-3(8)5(10)6(11)4(9)2-15-16(12,13)14/h4-7,9-11H,1-2H2,(H2,12,13,14)

>  <PUBCHEM_IUPAC_INCHIKEY>  (1) 
GSXOAOHZAIYLCY-UHFFFAOYSA-N

>  <PUBCHEM_XLOGP3_AA>  (1) 
-4.3

>  <PUBCHEM_EXACT_MASS>  (1) 
260.029719

>  <PUBCHEM_MOLECULAR_FORMULA>  (1) 
C6H13O9P

>  <PUBCHEM_MOLECULAR_WEIGHT>  (1) 
260.14

>  <PUBCHEM_OPENEYE_CAN_SMILES>  (1) 
C(C(C(C(C(=O)CO)O)O)O)OP(=O)(O)O

>  <PUBCHEM_OPENEYE_ISO_SMILES>  (1) 
C(C(C(C(C(=O)CO)O)O)O)OP(=O)(O)O

>  <PUBCHEM_CACTVS_TPSA>  (1) 
165

>  <PUBCHEM_MONOISOTOPIC_WEIGHT>  (1) 
260.029719

>  <PUBCHEM_TOTAL_CHARGE>  (1) 
0

>  <PUBCHEM_HEAVY_ATOM_COUNT>  (1) 
16

>  <PUBCHEM_ATOM_DEF_STEREO_COUNT>  (1) 
0

>  <PUBCHEM_ATOM_UDEF_STEREO_COUNT>  (1) 
3

>  <PUBCHEM_BOND_DEF_STEREO_COUNT>  (1) 
0

>  <PUBCHEM_BOND_UDEF_STEREO_COUNT>  (1) 
0

>  <PUBCHEM_ISOTOPIC_ATOM_COUNT>  (1) 
0

>  <PUBCHEM_COMPONENT_COUNT>  (1) 
1

>  <PUBCHEM_CACTVS_TAUTO_COUNT>  (1) 
-1

>  <PUBCHEM_COORDINATE_TYPE>  (1) 
1
5
255

>  <PUBCHEM_BONDANNOTATIONS>  (1) 
11  2  3
12  3  3
13  5  3

$$$$
