606
     RDKit          2D

 15 15  0  0  1  0  0  0  0  0999 V2000
    3.9582   -0.0922    0.0000 P   0  0  0  0  0  0  0  0  0  0  0  0
   -0.2570   -1.6678    0.0000 O   0  0  0  0  0  0  0  0  0  0  0  0
    2.5531   -0.6174    0.0000 O   0  0  0  0  0  0  0  0  0  0  0  0
   -0.9190    2.2452    0.0000 O   0  0  0  0  0  0  0  0  0  0  0  0
    3.4330    1.3128    0.0000 O   0  0  0  0  0  0  0  0  0  0  0  0
    5.3632    0.4329    0.0000 O   0  0  0  0  0  0  0  0  0  0  0  0
    4.4833   -1.4973    0.0000 O   0  0  0  0  0  0  0  0  0  0  0  0
   -2.9727   -1.2048    0.0000 N   0  0  0  0  0  0  0  0  0  0  0  0
   -4.9965    0.1350    0.0000 N   0  0  0  0  0  0  0  0  0  0  0  0
   -0.0093   -0.1884    0.0000 C   0  0  0  0  0  0  0  0  0  0  0  0
   -1.1667    0.7658    0.0000 C   0  0  0  0  0  0  0  0  0  0  0  0
    1.3958    0.3368    0.0000 C   0  0  0  0  0  0  0  0  0  0  0  0
   -2.5717    0.2407    0.0000 C   0  0  0  0  0  0  0  0  0  0  0  0
   -3.8225    1.0687    0.0000 C   0  0  0  0  0  0  0  0  0  0  0  0
   -4.4713   -1.2701    0.0000 C   0  0  0  0  0  0  0  0  0  0  0  0
  1  3  1  0
  1  5  1  0
  1  6  1  0
  1  7  2  0
  2 10  1  0
  3 12  1  0
  4 11  1  0
  8 13  1  0
  8 15  1  0
  9 14  1  0
  9 15  2  0
 10 11  1  0
 10 12  1  0
 11 13  1  0
 13 14  2  0
M  END
>  <PUBCHEM_COMPOUND_CID>  (1) 
606

>  <PUBCHEM_COMPOUND_CANONICALIZED>  (1) 
1

>  <PUBCHEM_CACTVS_COMPLEXITY>  (1) 
246

>  <PUBCHEM_CACTVS_HBOND_ACCEPTOR>  (1) 
7

>  <PUBCHEM_CACTVS_HBOND_DONOR>  (1) 
5

>  <PUBCHEM_CACTVS_ROTATABLE_BOND>  (1) 
5

>  <PUBCHEM_CACTVS_SUBSKEYS>  (1) 
AAADccBjOAIAAAAAAAAAAAAAAAAAAWAAAAAAAAAAAAAAAAABgAAAHgAQCCAACBzhlgYtkBbJkxCgQRRnZIQAgC2xEqABUYA4eAiDfAJAmQCUQAAP0ANRUCCwEAIAAAAAAAAAAAAAAAAAAAAAAAAAAAAAAA==

>  <PUBCHEM_IUPAC_OPENEYE_NAME>  (1) 
[2,3-dihydroxy-3-(1H-imidazol-5-yl)propyl] dihydrogen phosphate

>  <PUBCHEM_IUPAC_CAS_NAME>  (1) 
[2,3-dihydroxy-3-(1H-imidazol-5-yl)propyl] dihydrogen phosphate

>  <PUBCHEM_IUPAC_NAME_MARKUP>  (1) 
[2,3-dihydroxy-3-(1<I>H</I>-imidazol-5-yl)propyl] dihydrogen phosphate

>  <PUBCHEM_IUPAC_NAME>  (1) 
[2,3-dihydroxy-3-(1H-imidazol-5-yl)propyl] dihydrogen phosphate

>  <PUBCHEM_IUPAC_SYSTEMATIC_NAME>  (1) 
[3-(1H-imidazol-5-yl)-2,3-bis(oxidanyl)propyl] dihydrogen phosphate

>  <PUBCHEM_IUPAC_TRADITIONAL_NAME>  (1) 
[2,3-dihydroxy-3-(1H-imidazol-5-yl)propyl] dihydrogen phosphate

>  <PUBCHEM_IUPAC_INCHI>  (1) 
InChI=1S/C6H11N2O6P/c9-5(2-14-15(11,12)13)6(10)4-1-7-3-8-4/h1,3,5-6,9-10H,2H2,(H,7,8)(H2,11,12,13)

>  <PUBCHEM_IUPAC_INCHIKEY>  (1) 
HFYBTHCYPKEDQQ-UHFFFAOYSA-N

>  <PUBCHEM_XLOGP3_AA>  (1) 
-3.2

>  <PUBCHEM_EXACT_MASS>  (1) 
238.035473

>  <PUBCHEM_MOLECULAR_FORMULA>  (1) 
C6H11N2O6P

>  <PUBCHEM_MOLECULAR_WEIGHT>  (1) 
238.14

>  <PUBCHEM_OPENEYE_CAN_SMILES>  (1) 
C1=C(NC=N1)C(C(COP(=O)(O)O)O)O

>  <PUBCHEM_OPENEYE_ISO_SMILES>  (1) 
C1=C(NC=N1)C(C(COP(=O)(O)O)O)O

>  <PUBCHEM_CACTVS_TPSA>  (1) 
136

>  <PUBCHEM_MONOISOTOPIC_WEIGHT>  (1) 
238.035473

>  <PUBCHEM_TOTAL_CHARGE>  (1) 
0

>  <PUBCHEM_HEAVY_ATOM_COUNT>  (1) 
15

>  <PUBCHEM_ATOM_DEF_STEREO_COUNT>  (1) 
0

>  <PUBCHEM_ATOM_UDEF_STEREO_COUNT>  (1) 
2

>  <PUBCHEM_BOND_DEF_STEREO_COUNT>  (1) 
0

>  <PUBCHEM_BOND_UDEF_STEREO_COUNT>  (1) 
0

>  <PUBCHEM_ISOTOPIC_ATOM_COUNT>  (1) 
0

>  <PUBCHEM_COMPONENT_COUNT>  (1) 
1

>  <PUBCHEM_CACTVS_TAUTO_COUNT>  (1) 
-1

>  <PUBCHEM_COORDINATE_TYPE>  (1) 
1
5
255

>  <PUBCHEM_BONDANNOTATIONS>  (1) 
13  14  8
10  2  3
11  4  3
8  13  8
8  15  8
9  14  8
9  15  8

$$$$
