607
     RDKit          2D

 14 13  0  0  1  0  0  0  0  0999 V2000
   -0.7756   -1.8264    0.0000 O   0  0  0  0  0  0  0  0  0  0  0  0
    0.7756    1.8264    0.0000 O   0  0  0  0  0  0  0  0  0  0  0  0
   -1.8164    2.0033    0.0000 O   0  0  0  0  0  0  0  0  0  0  0  0
    1.8164   -2.0033    0.0000 O   0  0  0  0  0  0  0  0  0  0  0  0
   -4.5106    0.6836    0.0000 O   0  0  0  0  0  0  0  0  0  0  0  0
    4.5106   -0.6836    0.0000 O   0  0  0  0  0  0  0  0  0  0  0  0
   -3.3677   -1.6496    0.0000 O   0  0  0  0  0  0  0  0  0  0  0  0
    3.3677    1.6496    0.0000 O   0  0  0  0  0  0  0  0  0  0  0  0
   -0.6735   -0.3299    0.0000 C   0  0  0  0  0  0  0  0  0  0  0  0
    0.6735    0.3299    0.0000 C   0  0  0  0  0  0  0  0  0  0  0  0
   -1.9185    0.5067    0.0000 C   0  0  0  0  0  0  0  0  0  0  0  0
    1.9185   -0.5067    0.0000 C   0  0  0  0  0  0  0  0  0  0  0  0
   -3.2656   -0.1531    0.0000 C   0  0  0  0  0  0  0  0  0  0  0  0
    3.2656    0.1531    0.0000 C   0  0  0  0  0  0  0  0  0  0  0  0
  1  9  1  0
  2 10  1  0
  3 11  1  0
  4 12  1  0
  5 13  1  0
  6 14  1  0
  7 13  2  0
  8 14  2  0
  9 10  1  0
  9 11  1  0
 10 12  1  0
 11 13  1  0
 12 14  1  0
M  END
>  <PUBCHEM_COMPOUND_CID>  (1) 
607

>  <PUBCHEM_COMPOUND_CANONICALIZED>  (1) 
1

>  <PUBCHEM_CACTVS_COMPLEXITY>  (1) 
202

>  <PUBCHEM_CACTVS_HBOND_ACCEPTOR>  (1) 
8

>  <PUBCHEM_CACTVS_HBOND_DONOR>  (1) 
6

>  <PUBCHEM_CACTVS_ROTATABLE_BOND>  (1) 
5

>  <PUBCHEM_CACTVS_SUBSKEYS>  (1) 
AAADccBgPAAAAAAAAAAAAAAAAAAAAAAAAAAAAAAAAAAAAAAAAAAAGgAACAAACBSggAIACAAAAgAIAACQCAIAAAAAAAAAAAFAAAABEBYAAAAAQAAFIAABAAHKbARAAAAAAAAAAAAAAAAAAAAAAAAAAAAAAA==

>  <PUBCHEM_IUPAC_OPENEYE_NAME>  (1) 
2,3,4,5-tetrahydroxyhexanedioic acid

>  <PUBCHEM_IUPAC_CAS_NAME>  (1) 
2,3,4,5-tetrahydroxyhexanedioic acid

>  <PUBCHEM_IUPAC_NAME_MARKUP>  (1) 
2,3,4,5-tetrahydroxyhexanedioic acid

>  <PUBCHEM_IUPAC_NAME>  (1) 
2,3,4,5-tetrahydroxyhexanedioic acid

>  <PUBCHEM_IUPAC_SYSTEMATIC_NAME>  (1) 
2,3,4,5-tetrakis(oxidanyl)hexanedioic acid

>  <PUBCHEM_IUPAC_TRADITIONAL_NAME>  (1) 
2,3,4,5-tetrahydroxyadipic acid

>  <PUBCHEM_IUPAC_INCHI>  (1) 
InChI=1S/C6H10O8/c7-1(3(9)5(11)12)2(8)4(10)6(13)14/h1-4,7-10H,(H,11,12)(H,13,14)

>  <PUBCHEM_IUPAC_INCHIKEY>  (1) 
DSLZVSRJTYRBFB-UHFFFAOYSA-N

>  <PUBCHEM_XLOGP3>  (1) 
-2.5

>  <PUBCHEM_EXACT_MASS>  (1) 
210.037567

>  <PUBCHEM_MOLECULAR_FORMULA>  (1) 
C6H10O8

>  <PUBCHEM_MOLECULAR_WEIGHT>  (1) 
210.14

>  <PUBCHEM_OPENEYE_CAN_SMILES>  (1) 
C(C(C(C(=O)O)O)O)(C(C(=O)O)O)O

>  <PUBCHEM_OPENEYE_ISO_SMILES>  (1) 
C(C(C(C(=O)O)O)O)(C(C(=O)O)O)O

>  <PUBCHEM_CACTVS_TPSA>  (1) 
156

>  <PUBCHEM_MONOISOTOPIC_WEIGHT>  (1) 
210.037567

>  <PUBCHEM_TOTAL_CHARGE>  (1) 
0

>  <PUBCHEM_HEAVY_ATOM_COUNT>  (1) 
14

>  <PUBCHEM_ATOM_DEF_STEREO_COUNT>  (1) 
0

>  <PUBCHEM_ATOM_UDEF_STEREO_COUNT>  (1) 
4

>  <PUBCHEM_BOND_DEF_STEREO_COUNT>  (1) 
0

>  <PUBCHEM_BOND_UDEF_STEREO_COUNT>  (1) 
0

>  <PUBCHEM_ISOTOPIC_ATOM_COUNT>  (1) 
0

>  <PUBCHEM_COMPONENT_COUNT>  (1) 
1

>  <PUBCHEM_CACTVS_TAUTO_COUNT>  (1) 
-1

>  <PUBCHEM_COORDINATE_TYPE>  (1) 
1
5
255

>  <PUBCHEM_BONDANNOTATIONS>  (1) 
9  1  3
10  2  3
11  3  3
12  4  3

$$$$
