61
     RDKit          2D

 15 14  0  0  1  0  0  0  0  0999 V2000
    2.5249    1.1202    0.0000 P   0  0  0  0  0  0  0  0  0  0  0  0
   -3.4233    0.3334    0.0000 P   0  0  0  0  0  0  0  0  0  0  0  0
    1.0379    0.9235    0.0000 O   0  0  0  0  0  0  0  0  0  0  0  0
   -1.9362    0.5301    0.0000 O   0  0  0  0  0  0  0  0  0  0  0  0
    2.8656   -1.4554    0.0000 O   0  0  0  0  0  0  0  0  0  0  0  0
    2.7216   -0.3668    0.0000 O   0  0  0  0  0  0  0  0  0  0  0  0
    4.0119    1.3169    0.0000 O   0  0  0  0  0  0  0  0  0  0  0  0
   -3.2266   -1.1537    0.0000 O   0  0  0  0  0  0  0  0  0  0  0  0
   -4.9103    0.1366    0.0000 O   0  0  0  0  0  0  0  0  0  0  0  0
    0.8054   -3.0383    0.0000 O   0  0  0  0  0  0  0  0  0  0  0  0
    2.3282    2.6073    0.0000 O   0  0  0  0  0  0  0  0  0  0  0  0
   -3.6200    1.8204    0.0000 O   0  0  0  0  0  0  0  0  0  0  0  0
    0.4647   -0.4627    0.0000 C   0  0  0  0  0  0  0  0  0  0  0  0
   -1.0224   -0.6594    0.0000 C   0  0  0  0  0  0  0  0  0  0  0  0
    1.3786   -1.6521    0.0000 C   0  0  0  0  0  0  0  0  0  0  0  0
  1  3  1  0
  1  6  1  0
  1  7  1  0
  1 11  2  0
  2  4  1  0
  2  8  1  0
  2  9  1  0
  2 12  2  0
  3 13  1  0
  4 14  1  0
  5 15  1  0
 10 15  2  0
 13 14  1  0
 13 15  1  0
M  END
>  <PUBCHEM_COMPOUND_CID>  (1) 
61

>  <PUBCHEM_COMPOUND_CANONICALIZED>  (1) 
1

>  <PUBCHEM_CACTVS_COMPLEXITY>  (1) 
311

>  <PUBCHEM_CACTVS_HBOND_ACCEPTOR>  (1) 
10

>  <PUBCHEM_CACTVS_HBOND_DONOR>  (1) 
5

>  <PUBCHEM_CACTVS_ROTATABLE_BOND>  (1) 
6

>  <PUBCHEM_CACTVS_SUBSKEYS>  (1) 
AAADccBAPAMAAAAAAAAAAAAAAAAAAAAAAAAAAAAAAAAAAAAAAAAAGgAACCAACBSggAIACAAAAxAIQACQCIIAAAAAAAAAAAFAAAABAAQAAAAAQAABIAABAAAAAAAAAAAAAAAAAAAAAAAAAAAAAAAAAAAAAA==

>  <PUBCHEM_IUPAC_OPENEYE_NAME>  (1) 
2,3-diphosphonooxypropanoic acid

>  <PUBCHEM_IUPAC_CAS_NAME>  (1) 
2,3-diphosphonooxypropanoic acid

>  <PUBCHEM_IUPAC_NAME_MARKUP>  (1) 
2,3-diphosphonooxypropanoic acid

>  <PUBCHEM_IUPAC_NAME>  (1) 
2,3-diphosphonooxypropanoic acid

>  <PUBCHEM_IUPAC_SYSTEMATIC_NAME>  (1) 
2,3-diphosphonooxypropanoic acid

>  <PUBCHEM_IUPAC_TRADITIONAL_NAME>  (1) 
2,3-diphosphonooxypropionic acid

>  <PUBCHEM_IUPAC_INCHI>  (1) 
InChI=1S/C3H8O10P2/c4-3(5)2(13-15(9,10)11)1-12-14(6,7)8/h2H,1H2,(H,4,5)(H2,6,7,8)(H2,9,10,11)

>  <PUBCHEM_IUPAC_INCHIKEY>  (1) 
XOHUEYCVLUUEJJ-UHFFFAOYSA-N

>  <PUBCHEM_XLOGP3_AA>  (1) 
-3.7

>  <PUBCHEM_EXACT_MASS>  (1) 
265.95927

>  <PUBCHEM_MOLECULAR_FORMULA>  (1) 
C3H8O10P2

>  <PUBCHEM_MOLECULAR_WEIGHT>  (1) 
266.04

>  <PUBCHEM_OPENEYE_CAN_SMILES>  (1) 
C(C(C(=O)O)OP(=O)(O)O)OP(=O)(O)O

>  <PUBCHEM_OPENEYE_ISO_SMILES>  (1) 
C(C(C(=O)O)OP(=O)(O)O)OP(=O)(O)O

>  <PUBCHEM_CACTVS_TPSA>  (1) 
171

>  <PUBCHEM_MONOISOTOPIC_WEIGHT>  (1) 
265.95927

>  <PUBCHEM_TOTAL_CHARGE>  (1) 
0

>  <PUBCHEM_HEAVY_ATOM_COUNT>  (1) 
15

>  <PUBCHEM_ATOM_DEF_STEREO_COUNT>  (1) 
0

>  <PUBCHEM_ATOM_UDEF_STEREO_COUNT>  (1) 
1

>  <PUBCHEM_BOND_DEF_STEREO_COUNT>  (1) 
0

>  <PUBCHEM_BOND_UDEF_STEREO_COUNT>  (1) 
0

>  <PUBCHEM_ISOTOPIC_ATOM_COUNT>  (1) 
0

>  <PUBCHEM_COMPONENT_COUNT>  (1) 
1

>  <PUBCHEM_CACTVS_TAUTO_COUNT>  (1) 
-1

>  <PUBCHEM_COORDINATE_TYPE>  (1) 
1
5
255

>  <PUBCHEM_BONDANNOTATIONS>  (1) 
13  14  3

$$$$
