615
     RDKit          2D

 14 13  0  0  1  0  0  0  0  0999 V2000
   -3.6378    0.0492    0.0000 P   0  0  0  0  0  0  0  0  0  0  0  0
    1.4030    2.0088    0.0000 O   0  0  0  0  0  0  0  0  0  0  0  0
    3.0329   -1.6097    0.0000 O   0  0  0  0  0  0  0  0  0  0  0  0
   -2.2768   -0.5814    0.0000 O   0  0  0  0  0  0  0  0  0  0  0  0
    5.4861    0.1171    0.0000 O   0  0  0  0  0  0  0  0  0  0  0  0
    0.4453   -1.8425    0.0000 O   0  0  0  0  0  0  0  0  0  0  0  0
   -3.0072    1.4102    0.0000 O   0  0  0  0  0  0  0  0  0  0  0  0
   -4.9988    0.6797    0.0000 O   0  0  0  0  0  0  0  0  0  0  0  0
   -4.2684   -1.3118    0.0000 O   0  0  0  0  0  0  0  0  0  0  0  0
    1.5374    0.5149    0.0000 C   0  0  0  0  0  0  0  0  0  0  0  0
    2.8985   -0.1157    0.0000 C   0  0  0  0  0  0  0  0  0  0  0  0
    0.3109   -0.3485    0.0000 C   0  0  0  0  0  0  0  0  0  0  0  0
    4.1251    0.7477    0.0000 C   0  0  0  0  0  0  0  0  0  0  0  0
   -1.0502    0.2820    0.0000 C   0  0  0  0  0  0  0  0  0  0  0  0
  1  4  1  0
  1  7  1  0
  1  8  1  0
  1  9  2  0
  2 10  1  0
  3 11  1  0
  4 14  1  0
  5 13  1  0
  6 12  2  0
 10 11  1  0
 10 12  1  0
 11 13  1  0
 12 14  1  0
M  END
>  <PUBCHEM_COMPOUND_CID>  (1) 
615

>  <PUBCHEM_COMPOUND_CANONICALIZED>  (1) 
1

>  <PUBCHEM_CACTVS_COMPLEXITY>  (1) 
234

>  <PUBCHEM_CACTVS_HBOND_ACCEPTOR>  (1) 
8

>  <PUBCHEM_CACTVS_HBOND_DONOR>  (1) 
5

>  <PUBCHEM_CACTVS_ROTATABLE_BOND>  (1) 
6

>  <PUBCHEM_CACTVS_SUBSKEYS>  (1) 
AAADccBgPAIAAAAAAAAAAAAAAAAAAAAAAAAAAAAAAAAAAAAAAAAAGgAACCAACBSggAIAAAAAAxAIQIAQAIIAAAAAAAAAAAFAAAABEBYAAAAAQAAFIAABAADCIAAAAAAAAAAAAAAAAAAAAAAAAAAAAAAAAA==

>  <PUBCHEM_IUPAC_OPENEYE_NAME>  (1) 
(3,4,5-trihydroxy-2-oxo-pentyl) dihydrogen phosphate

>  <PUBCHEM_IUPAC_CAS_NAME>  (1) 
(3,4,5-trihydroxy-2-oxopentyl) dihydrogen phosphate

>  <PUBCHEM_IUPAC_NAME_MARKUP>  (1) 
(3,4,5-trihydroxy-2-oxopentyl) dihydrogen phosphate

>  <PUBCHEM_IUPAC_NAME>  (1) 
(3,4,5-trihydroxy-2-oxopentyl) dihydrogen phosphate

>  <PUBCHEM_IUPAC_SYSTEMATIC_NAME>  (1) 
[3,4,5-tris(oxidanyl)-2-oxidanylidene-pentyl] dihydrogen phosphate

>  <PUBCHEM_IUPAC_TRADITIONAL_NAME>  (1) 
(3,4,5-trihydroxy-2-keto-pentyl) dihydrogen phosphate

>  <PUBCHEM_IUPAC_INCHI>  (1) 
InChI=1S/C5H11O8P/c6-1-3(7)5(9)4(8)2-13-14(10,11)12/h3,5-7,9H,1-2H2,(H2,10,11,12)

>  <PUBCHEM_IUPAC_INCHIKEY>  (1) 
NBOCCPQHBPGYCX-UHFFFAOYSA-N

>  <PUBCHEM_XLOGP3_AA>  (1) 
-3.7

>  <PUBCHEM_EXACT_MASS>  (1) 
230.019154

>  <PUBCHEM_MOLECULAR_FORMULA>  (1) 
C5H11O8P

>  <PUBCHEM_MOLECULAR_WEIGHT>  (1) 
230.11

>  <PUBCHEM_OPENEYE_CAN_SMILES>  (1) 
C(C(C(C(=O)COP(=O)(O)O)O)O)O

>  <PUBCHEM_OPENEYE_ISO_SMILES>  (1) 
C(C(C(C(=O)COP(=O)(O)O)O)O)O

>  <PUBCHEM_CACTVS_TPSA>  (1) 
145

>  <PUBCHEM_MONOISOTOPIC_WEIGHT>  (1) 
230.019154

>  <PUBCHEM_TOTAL_CHARGE>  (1) 
0

>  <PUBCHEM_HEAVY_ATOM_COUNT>  (1) 
14

>  <PUBCHEM_ATOM_DEF_STEREO_COUNT>  (1) 
0

>  <PUBCHEM_ATOM_UDEF_STEREO_COUNT>  (1) 
2

>  <PUBCHEM_BOND_DEF_STEREO_COUNT>  (1) 
0

>  <PUBCHEM_BOND_UDEF_STEREO_COUNT>  (1) 
0

>  <PUBCHEM_ISOTOPIC_ATOM_COUNT>  (1) 
0

>  <PUBCHEM_COMPONENT_COUNT>  (1) 
1

>  <PUBCHEM_CACTVS_TAUTO_COUNT>  (1) 
-1

>  <PUBCHEM_COORDINATE_TYPE>  (1) 
1
5
255

>  <PUBCHEM_BONDANNOTATIONS>  (1) 
10  2  3
11  3  3

$$$$
