621
     RDKit          2D

 22 24  0  0  1  0  0  0  0  0999 V2000
   -4.9153   -1.6186    0.0000 P   0  0  0  0  0  0  0  0  0  0  0  0
   -0.7564    0.4218    0.0000 O   0  0  0  0  0  0  0  0  0  0  0  0
   -2.8095    3.7158    0.0000 O   0  0  0  0  0  0  0  0  0  0  0  0
   -3.5567   -0.9829    0.0000 O   0  0  0  0  0  0  0  0  0  0  0  0
   -5.5511   -0.2600    0.0000 O   0  0  0  0  0  0  0  0  0  0  0  0
   -6.2740   -2.2543    0.0000 O   0  0  0  0  0  0  0  0  0  0  0  0
   -4.2796   -2.9772    0.0000 O   0  0  0  0  0  0  0  0  0  0  0  0
    1.8121    1.1620    0.0000 N   0  0  0  0  0  0  0  0  0  0  0  0
    4.2206    1.4610    0.0000 N   0  0  0  0  0  0  0  0  0  0  0  0
    1.8635   -1.5782    0.0000 N   0  0  0  0  0  0  0  0  0  0  0  0
    4.2564   -2.5901    0.0000 N   0  0  0  0  0  0  0  0  0  0  0  0
    6.3292   -1.0239    0.0000 N   0  0  0  0  0  0  0  0  0  0  0  0
   -1.7851    2.6201    0.0000 C   0  0  0  0  0  0  0  0  0  0  0  0
    0.3392    1.4463    0.0000 C   0  0  0  0  0  0  0  0  0  0  0  0
   -2.0693    1.1473    0.0000 C   0  0  0  0  0  0  0  0  0  0  0  0
   -0.2965    2.8049    0.0000 C   0  0  0  0  0  0  0  0  0  0  0  0
   -3.4279    0.5116    0.0000 C   0  0  0  0  0  0  0  0  0  0  0  0
    2.4478   -0.1966    0.0000 C   0  0  0  0  0  0  0  0  0  0  0  0
    2.9077    2.1864    0.0000 C   0  0  0  0  0  0  0  0  0  0  0  0
    3.9364   -0.0119    0.0000 C   0  0  0  0  0  0  0  0  0  0  0  0
    4.8407   -1.2086    0.0000 C   0  0  0  0  0  0  0  0  0  0  0  0
    2.7678   -2.7749    0.0000 C   0  0  0  0  0  0  0  0  0  0  0  0
  1  4  1  0
  1  5  1  0
  1  6  1  0
  1  7  2  0
  2 14  1  0
  2 15  1  0
  3 13  1  0
  4 17  1  0
  8 14  1  0
  8 18  1  0
  8 19  1  0
  9 19  2  0
  9 20  1  0
 10 18  1  0
 10 22  2  0
 11 21  2  0
 11 22  1  0
 12 21  1  0
 13 15  1  0
 13 16  1  0
 14 16  1  0
 15 17  1  0
 18 20  2  0
 20 21  1  0
M  END
>  <PUBCHEM_COMPOUND_CID>  (1) 
621

>  <PUBCHEM_COMPOUND_CANONICALIZED>  (1) 
1

>  <PUBCHEM_CACTVS_COMPLEXITY>  (1) 
452

>  <PUBCHEM_CACTVS_HBOND_ACCEPTOR>  (1) 
10

>  <PUBCHEM_CACTVS_HBOND_DONOR>  (1) 
4

>  <PUBCHEM_CACTVS_ROTATABLE_BOND>  (1) 
4

>  <PUBCHEM_CACTVS_SUBSKEYS>  (1) 
AAADccBzuAIAAAAAAAAAAAAAAAAAAWJAAAAsAAAAAAAAAFgB+AAAHgAQCCAACBzhlwYF8L9MFxCgQQZhZICAgC0REKABUCAoVBCBWAJAyEAeRAgPAALDACCwMAIAAAAAAAAAAAAAAAAAAAAAAAAAAAAAAA==

>  <PUBCHEM_IUPAC_OPENEYE_NAME>  (1) 
[5-(6-aminopurin-9-yl)-3-hydroxy-tetrahydrofuran-2-yl]methyl dihydrogen phosphate

>  <PUBCHEM_IUPAC_CAS_NAME>  (1) 
[5-(6-aminopurin-9-yl)-3-hydroxy-2-oxolanyl]methyl dihydrogen phosphate

>  <PUBCHEM_IUPAC_NAME_MARKUP>  (1) 
[5-(6-aminopurin-9-yl)-3-hydroxyoxolan-2-yl]methyl dihydrogen phosphate

>  <PUBCHEM_IUPAC_NAME>  (1) 
[5-(6-aminopurin-9-yl)-3-hydroxyoxolan-2-yl]methyl dihydrogen phosphate

>  <PUBCHEM_IUPAC_SYSTEMATIC_NAME>  (1) 
[5-(6-aminopurin-9-yl)-3-oxidanyl-oxolan-2-yl]methyl dihydrogen phosphate

>  <PUBCHEM_IUPAC_TRADITIONAL_NAME>  (1) 
(5-adenin-9-yl-3-hydroxy-tetrahydrofuran-2-yl)methyl dihydrogen phosphate

>  <PUBCHEM_IUPAC_INCHI>  (1) 
InChI=1S/C10H14N5O6P/c11-9-8-10(13-3-12-9)15(4-14-8)7-1-5(16)6(21-7)2-20-22(17,18)19/h3-7,16H,1-2H2,(H2,11,12,13)(H2,17,18,19)

>  <PUBCHEM_IUPAC_INCHIKEY>  (1) 
KHWCHTKSEGGWEX-UHFFFAOYSA-N

>  <PUBCHEM_XLOGP3>  (1) 
-2.2

>  <PUBCHEM_EXACT_MASS>  (1) 
331.06817

>  <PUBCHEM_MOLECULAR_FORMULA>  (1) 
C10H14N5O6P

>  <PUBCHEM_MOLECULAR_WEIGHT>  (1) 
331.22

>  <PUBCHEM_OPENEYE_CAN_SMILES>  (1) 
C1C(C(OC1N2C=NC3=C(N=CN=C32)N)COP(=O)(O)O)O

>  <PUBCHEM_OPENEYE_ISO_SMILES>  (1) 
C1C(C(OC1N2C=NC3=C(N=CN=C32)N)COP(=O)(O)O)O

>  <PUBCHEM_CACTVS_TPSA>  (1) 
166

>  <PUBCHEM_MONOISOTOPIC_WEIGHT>  (1) 
331.06817

>  <PUBCHEM_TOTAL_CHARGE>  (1) 
0

>  <PUBCHEM_HEAVY_ATOM_COUNT>  (1) 
22

>  <PUBCHEM_ATOM_DEF_STEREO_COUNT>  (1) 
0

>  <PUBCHEM_ATOM_UDEF_STEREO_COUNT>  (1) 
3

>  <PUBCHEM_BOND_DEF_STEREO_COUNT>  (1) 
0

>  <PUBCHEM_BOND_UDEF_STEREO_COUNT>  (1) 
0

>  <PUBCHEM_ISOTOPIC_ATOM_COUNT>  (1) 
0

>  <PUBCHEM_COMPONENT_COUNT>  (1) 
1

>  <PUBCHEM_CACTVS_TAUTO_COUNT>  (1) 
-1

>  <PUBCHEM_COORDINATE_TYPE>  (1) 
1
5
255

>  <PUBCHEM_BONDANNOTATIONS>  (1) 
10  18  8
10  22  8
11  21  8
11  22  8
15  17  3
18  20  8
20  21  8
13  3  3
14  8  3
8  18  8
8  19  8
9  19  8
9  20  8

$$$$
