628
     RDKit          2D

 44 48  0  0  1  0  0  0  0  0999 V2000
    1.1609    3.7757    0.0000 P   0  0  0  0  0  0  0  0  0  0  0  0
   -1.4233    4.0435    0.0000 P   0  0  0  0  0  0  0  0  0  0  0  0
    4.8619    0.9895    0.0000 O   0  0  0  0  0  0  0  0  0  0  0  0
   -4.6265   -0.1404    0.0000 O   0  0  0  0  0  0  0  0  0  0  0  0
    2.2259   -1.8595    0.0000 O   0  0  0  0  0  0  0  0  0  0  0  0
    5.3311   -2.8634    0.0000 O   0  0  0  0  0  0  0  0  0  0  0  0
   -5.7759    3.5669    0.0000 O   0  0  0  0  0  0  0  0  0  0  0  0
   -8.1978    1.3798    0.0000 O   0  0  0  0  0  0  0  0  0  0  0  0
    2.3758    2.8958    0.0000 O   0  0  0  0  0  0  0  0  0  0  0  0
   -2.7927    3.4314    0.0000 O   0  0  0  0  0  0  0  0  0  0  0  0
   -0.0539    4.6556    0.0000 O   0  0  0  0  0  0  0  0  0  0  0  0
    2.0408    4.9906    0.0000 O   0  0  0  0  0  0  0  0  0  0  0  0
   -0.8112    2.6741    0.0000 O   0  0  0  0  0  0  0  0  0  0  0  0
    0.2811    2.5609    0.0000 O   0  0  0  0  0  0  0  0  0  0  0  0
   -2.0354    5.4129    0.0000 O   0  0  0  0  0  0  0  0  0  0  0  0
  -11.3661   -1.6061    0.0000 O   0  0  0  0  0  0  0  0  0  0  0  0
  -11.3623   -4.2042    0.0000 O   0  0  0  0  0  0  0  0  0  0  0  0
    7.2453   -0.2205    0.0000 N   0  0  0  0  0  0  0  0  0  0  0  0
   -6.8661   -1.5995    0.0000 N   0  0  0  0  0  0  0  0  0  0  0  0
    9.5525    0.5329    0.0000 N   0  0  0  0  0  0  0  0  0  0  0  0
    7.8191   -2.9004    0.0000 N   0  0  0  0  0  0  0  0  0  0  0  0
   10.3612   -3.4368    0.0000 N   0  0  0  0  0  0  0  0  0  0  0  0
   12.0968   -1.5035    0.0000 N   0  0  0  0  0  0  0  0  0  0  0  0
    3.4382   -0.9761    0.0000 C   0  0  0  0  0  0  0  0  0  0  0  0
    4.8654   -1.4375    0.0000 C   0  0  0  0  0  0  0  0  0  0  0  0
    3.4360    0.5239    0.0000 C   0  0  0  0  0  0  0  0  0  0  0  0
    5.7453   -0.2227    0.0000 C   0  0  0  0  0  0  0  0  0  0  0  0
   -5.6169    2.0754    0.0000 C   0  0  0  0  0  0  0  0  0  0  0  0
   -6.7301    1.0700    0.0000 C   0  0  0  0  0  0  0  0  0  0  0  0
   -4.3167    1.3273    0.0000 C   0  0  0  0  0  0  0  0  0  0  0  0
   -6.1180   -0.2994    0.0000 C   0  0  0  0  0  0  0  0  0  0  0  0
    2.2212    1.4038    0.0000 C   0  0  0  0  0  0  0  0  0  0  0  0
   -2.9473    1.9394    0.0000 C   0  0  0  0  0  0  0  0  0  0  0  0
    8.1288   -1.4327    0.0000 C   0  0  0  0  0  0  0  0  0  0  0  0
    8.1252    0.9943    0.0000 C   0  0  0  0  0  0  0  0  0  0  0  0
   -8.3661   -1.6017    0.0000 C   0  0  0  0  0  0  0  0  0  0  0  0
   -6.1142   -2.8975    0.0000 C   0  0  0  0  0  0  0  0  0  0  0  0
    9.5547   -0.9671    0.0000 C   0  0  0  0  0  0  0  0  0  0  0  0
   -9.1142   -2.9019    0.0000 C   0  0  0  0  0  0  0  0  0  0  0  0
   -6.8623   -4.1976    0.0000 C   0  0  0  0  0  0  0  0  0  0  0  0
   10.6709   -1.9692    0.0000 C   0  0  0  0  0  0  0  0  0  0  0  0
   -8.3623   -4.1998    0.0000 C   0  0  0  0  0  0  0  0  0  0  0  0
    8.9353   -3.9025    0.0000 C   0  0  0  0  0  0  0  0  0  0  0  0
  -10.6142   -2.9041    0.0000 C   0  0  0  0  0  0  0  0  0  0  0  0
  1  9  1  0
  1 11  1  0
  1 12  1  0
  1 14  2  0
  2 10  1  0
  2 11  1  0
  2 13  1  0
  2 15  2  0
  3 26  1  0
  3 27  1  0
  4 30  1  0
  4 31  1  0
  5 24  1  0
  6 25  1  0
  7 28  1  0
  8 29  1  0
  9 32  1  0
 10 33  1  0
 16 44  1  0
 17 44  2  0
 18 27  1  0
 18 34  1  0
 18 35  1  0
 19 31  1  0
 19 36  2  0
 19 37  1  0
 20 35  2  0
 20 38  1  0
 21 34  1  0
 21 43  2  0
 22 41  2  0
 22 43  1  0
 23 41  1  0
 24 25  1  0
 24 26  1  0
 25 27  1  0
 26 32  1  0
 28 29  1  0
 28 30  1  0
 29 31  1  0
 30 33  1  0
 34 38  2  0
 36 39  1  0
 37 40  2  0
 38 41  1  0
 39 42  2  0
 39 44  1  0
 40 42  1  0
M  CHG  1  19   1
M  END
>  <PUBCHEM_COMPOUND_CID>  (1) 
628

>  <PUBCHEM_COMPOUND_CANONICALIZED>  (1) 
1

>  <PUBCHEM_CACTVS_COMPLEXITY>  (1) 
1130

>  <PUBCHEM_CACTVS_HBOND_ACCEPTOR>  (1) 
19

>  <PUBCHEM_CACTVS_HBOND_DONOR>  (1) 
8

>  <PUBCHEM_CACTVS_ROTATABLE_BOND>  (1) 
11

>  <PUBCHEM_CACTVS_SUBSKEYS>  (1) 
AAADceB7vAMAAAAAAAAAAAAAAAAAAWJEgAAsWAAAAAAAAFgB/gAAHgAQCCAADBzhnwY9+L9MFxCoQzb3bICCgC01EqAJ2CE4fNiLfvrA3dGedYhvwAPb2eb4MQIMAAAAAAAAAAAAAAAAAAAAAAAAAAAAAA==

>  <PUBCHEM_IUPAC_OPENEYE_NAME>  (1) 
1-[5-[[[[5-(6-aminopurin-9-yl)-3,4-dihydroxy-tetrahydrofuran-2-yl]methoxy-hydroxy-phosphoryl]oxy-hydroxy-phosphoryl]oxymethyl]-3,4-dihydroxy-tetrahydrofuran-2-yl]pyridin-1-ium-3-carboxylic acid

>  <PUBCHEM_IUPAC_CAS_NAME>  (1) 
1-[5-[[[[5-(6-aminopurin-9-yl)-3,4-dihydroxy-2-oxolanyl]methoxy-hydroxyphosphoryl]oxy-hydroxyphosphoryl]oxymethyl]-3,4-dihydroxy-2-oxolanyl]-3-pyridin-1-iumcarboxylic acid

>  <PUBCHEM_IUPAC_NAME_MARKUP>  (1) 
1-[5-[[[[5-(6-aminopurin-9-yl)-3,4-dihydroxyoxolan-2-yl]methoxy-hydroxyphosphoryl]oxy-hydroxyphosphoryl]oxymethyl]-3,4-dihydroxyoxolan-2-yl]pyridin-1-ium-3-carboxylic acid

>  <PUBCHEM_IUPAC_NAME>  (1) 
1-[5-[[[[5-(6-aminopurin-9-yl)-3,4-dihydroxyoxolan-2-yl]methoxy-hydroxyphosphoryl]oxy-hydroxyphosphoryl]oxymethyl]-3,4-dihydroxyoxolan-2-yl]pyridin-1-ium-3-carboxylic acid

>  <PUBCHEM_IUPAC_SYSTEMATIC_NAME>  (1) 
1-[5-[[[[5-(6-aminopurin-9-yl)-3,4-bis(oxidanyl)oxolan-2-yl]methoxy-oxidanyl-phosphoryl]oxy-oxidanyl-phosphoryl]oxymethyl]-3,4-bis(oxidanyl)oxolan-2-yl]pyridin-1-ium-3-carboxylic acid

>  <PUBCHEM_IUPAC_TRADITIONAL_NAME>  (1) 
1-[5-[[[(5-adenin-9-yl-3,4-dihydroxy-tetrahydrofuran-2-yl)methoxy-hydroxy-phosphoryl]oxy-hydroxy-phosphoryl]oxymethyl]-3,4-dihydroxy-tetrahydrofuran-2-yl]pyridin-1-ium-3-carboxylic acid

>  <PUBCHEM_IUPAC_INCHI>  (1) 
InChI=1S/C21H26N6O15P2/c22-17-12-18(24-7-23-17)27(8-25-12)20-16(31)14(29)11(41-20)6-39-44(36,37)42-43(34,35)38-5-10-13(28)15(30)19(40-10)26-3-1-2-9(4-26)21(32)33/h1-4,7-8,10-11,13-16,19-20,28-31H,5-6H2,(H4-,22,23,24,32,33,34,35,36,37)/p+1

>  <PUBCHEM_IUPAC_INCHIKEY>  (1) 
SENPVEZBRZQVST-UHFFFAOYSA-O

>  <PUBCHEM_XLOGP3>  (1) 
-5.3

>  <PUBCHEM_EXACT_MASS>  (1) 
665.100963

>  <PUBCHEM_MOLECULAR_FORMULA>  (1) 
C21H27N6O15P2+

>  <PUBCHEM_MOLECULAR_WEIGHT>  (1) 
665.4

>  <PUBCHEM_OPENEYE_CAN_SMILES>  (1) 
C1=CC(=C[N+](=C1)C2C(C(C(O2)COP(=O)(O)OP(=O)(O)OCC3C(C(C(O3)N4C=NC5=C(N=CN=C54)N)O)O)O)O)C(=O)O

>  <PUBCHEM_OPENEYE_ISO_SMILES>  (1) 
C1=CC(=C[N+](=C1)C2C(C(C(O2)COP(=O)(O)OP(=O)(O)OCC3C(C(C(O3)N4C=NC5=C(N=CN=C54)N)O)O)O)O)C(=O)O

>  <PUBCHEM_CACTVS_TPSA>  (1) 
313

>  <PUBCHEM_MONOISOTOPIC_WEIGHT>  (1) 
665.100963

>  <PUBCHEM_TOTAL_CHARGE>  (1) 
1

>  <PUBCHEM_HEAVY_ATOM_COUNT>  (1) 
44

>  <PUBCHEM_ATOM_DEF_STEREO_COUNT>  (1) 
0

>  <PUBCHEM_ATOM_UDEF_STEREO_COUNT>  (1) 
8

>  <PUBCHEM_BOND_DEF_STEREO_COUNT>  (1) 
0

>  <PUBCHEM_BOND_UDEF_STEREO_COUNT>  (1) 
0

>  <PUBCHEM_ISOTOPIC_ATOM_COUNT>  (1) 
0

>  <PUBCHEM_COMPONENT_COUNT>  (1) 
1

>  <PUBCHEM_CACTVS_TAUTO_COUNT>  (1) 
-1

>  <PUBCHEM_COORDINATE_TYPE>  (1) 
1
5
255

>  <PUBCHEM_BONDANNOTATIONS>  (1) 
27  18  3
18  34  8
18  35  8
31  19  3
19  36  8
19  37  8
20  35  8
20  38  8
21  34  8
21  43  8
22  41  8
22  43  8
26  32  3
30  33  3
34  38  8
36  39  8
37  40  8
38  41  8
39  42  8
40  42  8
24  5  3
25  6  3
28  7  3
29  8  3

$$$$
