63
     RDKit          2D

  9  8  0  0  1  0  0  0  0  0999 V2000
   -3.0997   -0.7094    0.0000 O   0  0  0  0  0  0  0  0  0  0  0  0
   -2.2062    1.7302    0.0000 O   0  0  0  0  0  0  0  0  0  0  0  0
    2.2769   -1.2950    0.0000 N   0  0  0  0  0  0  0  0  0  0  0  0
   -0.2826   -1.7410    0.0000 N   0  0  0  0  0  0  0  0  0  0  0  0
    0.6108    0.6986    0.0000 C   0  0  0  0  0  0  0  0  0  0  0  0
    2.0193    0.1828    0.0000 C   0  0  0  0  0  0  0  0  0  0  0  0
   -0.5402   -0.2633    0.0000 C   0  0  0  0  0  0  0  0  0  0  0  0
    3.1703    1.1447    0.0000 C   0  0  0  0  0  0  0  0  0  0  0  0
   -1.9487    0.2525    0.0000 C   0  0  0  0  0  0  0  0  0  0  0  0
  1  9  1  0
  2  9  2  0
  3  6  1  0
  4  7  1  0
  5  6  1  0
  5  7  1  0
  6  8  1  0
  7  9  1  0
M  END
>  <PUBCHEM_COMPOUND_CID>  (1) 
63

>  <PUBCHEM_COMPOUND_CANONICALIZED>  (1) 
1

>  <PUBCHEM_CACTVS_COMPLEXITY>  (1) 
105

>  <PUBCHEM_CACTVS_HBOND_ACCEPTOR>  (1) 
4

>  <PUBCHEM_CACTVS_HBOND_DONOR>  (1) 
3

>  <PUBCHEM_CACTVS_ROTATABLE_BOND>  (1) 
3

>  <PUBCHEM_CACTVS_SUBSKEYS>  (1) 
AAADccBjMAAAAAAAAAAAAAAAAAAAAAAAAAAAAAAAAAAAAAAAAAAAHgAQCAAACCjBgAQCCABAAgAIAACQCAAAAAAAAAAAAIGAAAACABIAwAAAQAAEEAAAAACsAAAAAAAAAAAAAAAAAAAAAAAAAAAAAAAAAA==

>  <PUBCHEM_IUPAC_OPENEYE_NAME>  (1) 
2,4-diaminopentanoic acid

>  <PUBCHEM_IUPAC_CAS_NAME>  (1) 
2,4-diaminopentanoic acid

>  <PUBCHEM_IUPAC_NAME_MARKUP>  (1) 
2,4-diaminopentanoic acid

>  <PUBCHEM_IUPAC_NAME>  (1) 
2,4-diaminopentanoic acid

>  <PUBCHEM_IUPAC_SYSTEMATIC_NAME>  (1) 
2,4-bis(azanyl)pentanoic acid

>  <PUBCHEM_IUPAC_TRADITIONAL_NAME>  (1) 
2,4-diaminovaleric acid

>  <PUBCHEM_IUPAC_INCHI>  (1) 
InChI=1S/C5H12N2O2/c1-3(6)2-4(7)5(8)9/h3-4H,2,6-7H2,1H3,(H,8,9)

>  <PUBCHEM_IUPAC_INCHIKEY>  (1) 
PCEJMSIIDXUDSN-UHFFFAOYSA-N

>  <PUBCHEM_XLOGP3_AA>  (1) 
-3.5

>  <PUBCHEM_EXACT_MASS>  (1) 
132.089878

>  <PUBCHEM_MOLECULAR_FORMULA>  (1) 
C5H12N2O2

>  <PUBCHEM_MOLECULAR_WEIGHT>  (1) 
132.16

>  <PUBCHEM_OPENEYE_CAN_SMILES>  (1) 
CC(CC(C(=O)O)N)N

>  <PUBCHEM_OPENEYE_ISO_SMILES>  (1) 
CC(CC(C(=O)O)N)N

>  <PUBCHEM_CACTVS_TPSA>  (1) 
89.3

>  <PUBCHEM_MONOISOTOPIC_WEIGHT>  (1) 
132.089878

>  <PUBCHEM_TOTAL_CHARGE>  (1) 
0

>  <PUBCHEM_HEAVY_ATOM_COUNT>  (1) 
9

>  <PUBCHEM_ATOM_DEF_STEREO_COUNT>  (1) 
0

>  <PUBCHEM_ATOM_UDEF_STEREO_COUNT>  (1) 
2

>  <PUBCHEM_BOND_DEF_STEREO_COUNT>  (1) 
0

>  <PUBCHEM_BOND_UDEF_STEREO_COUNT>  (1) 
0

>  <PUBCHEM_ISOTOPIC_ATOM_COUNT>  (1) 
0

>  <PUBCHEM_COMPONENT_COUNT>  (1) 
1

>  <PUBCHEM_CACTVS_TAUTO_COUNT>  (1) 
-1

>  <PUBCHEM_COORDINATE_TYPE>  (1) 
1
5
255

>  <PUBCHEM_BONDANNOTATIONS>  (1) 
6  3  3
7  4  3

$$$$
