630
     RDKit          2D

 13 13  0  0  1  0  0  0  0  0999 V2000
    1.8850   -1.6511    0.0000 O   0  0  0  0  0  0  0  0  0  0  0  0
   -2.5247   -2.3136    0.0000 O   0  0  0  0  0  0  0  0  0  0  0  0
   -3.4043    0.5545    0.0000 O   0  0  0  0  0  0  0  0  0  0  0  0
   -1.3602    2.7504    0.0000 O   0  0  0  0  0  0  0  0  0  0  0  0
    3.5759   -0.5877    0.0000 O   0  0  0  0  0  0  0  0  0  0  0  0
    2.3944    1.7262    0.0000 O   0  0  0  0  0  0  0  0  0  0  0  0
    0.9813   -0.4540    0.0000 C   0  0  0  0  0  0  0  0  0  0  0  0
   -0.0408   -1.5519    0.0000 C   0  0  0  0  0  0  0  0  0  0  0  0
   -1.5026   -1.2157    0.0000 C   0  0  0  0  0  0  0  0  0  0  0  0
    0.5415    0.9801    0.0000 C   0  0  0  0  0  0  0  0  0  0  0  0
   -1.9424    0.2184    0.0000 C   0  0  0  0  0  0  0  0  0  0  0  0
   -0.9204    1.3163    0.0000 C   0  0  0  0  0  0  0  0  0  0  0  0
    2.3172    0.2282    0.0000 C   0  0  0  0  0  0  0  0  0  0  0  0
  1  7  1  0
  2  9  1  0
  3 11  1  0
  4 12  2  0
  5 13  1  0
  6 13  2  0
  7  8  1  0
  7 10  1  0
  7 13  1  0
  8  9  1  0
  9 11  1  0
 10 12  1  0
 11 12  1  0
M  END
>  <PUBCHEM_COMPOUND_CID>  (1) 
630

>  <PUBCHEM_COMPOUND_CANONICALIZED>  (1) 
1

>  <PUBCHEM_CACTVS_COMPLEXITY>  (1) 
249

>  <PUBCHEM_CACTVS_HBOND_ACCEPTOR>  (1) 
6

>  <PUBCHEM_CACTVS_HBOND_DONOR>  (1) 
4

>  <PUBCHEM_CACTVS_ROTATABLE_BOND>  (1) 
1

>  <PUBCHEM_CACTVS_SUBSKEYS>  (1) 
AAADccBgOAAAAAAAAAAAAAAAAAAAAAAAAAAwAAAAAAAAAAAAAAAAGgAACAAADFSggAIACAAAAgAIAICQCAIAAAAAAAAAAAFAAAABEBYAAAAAQAAFIAABAAHL7DTOAAAAAAAAAABCAAIQAACAAAAAAAAAAA==

>  <PUBCHEM_IUPAC_OPENEYE_NAME>  (1) 
1,3,4-trihydroxy-5-oxo-cyclohexanecarboxylic acid

>  <PUBCHEM_IUPAC_CAS_NAME>  (1) 
1,3,4-trihydroxy-5-oxo-1-cyclohexanecarboxylic acid

>  <PUBCHEM_IUPAC_NAME_MARKUP>  (1) 
1,3,4-trihydroxy-5-oxocyclohexane-1-carboxylic acid

>  <PUBCHEM_IUPAC_NAME>  (1) 
1,3,4-trihydroxy-5-oxocyclohexane-1-carboxylic acid

>  <PUBCHEM_IUPAC_SYSTEMATIC_NAME>  (1) 
1,3,4-tris(oxidanyl)-5-oxidanylidene-cyclohexane-1-carboxylic acid

>  <PUBCHEM_IUPAC_TRADITIONAL_NAME>  (1) 
1,3,4-trihydroxy-5-keto-cyclohexanecarboxylic acid

>  <PUBCHEM_IUPAC_INCHI>  (1) 
InChI=1S/C7H10O6/c8-3-1-7(13,6(11)12)2-4(9)5(3)10/h3,5,8,10,13H,1-2H2,(H,11,12)

>  <PUBCHEM_IUPAC_INCHIKEY>  (1) 
WVMWZWGZRAXUBK-UHFFFAOYSA-N

>  <PUBCHEM_XLOGP3_AA>  (1) 
-2.4

>  <PUBCHEM_EXACT_MASS>  (1) 
190.047738

>  <PUBCHEM_MOLECULAR_FORMULA>  (1) 
C7H10O6

>  <PUBCHEM_MOLECULAR_WEIGHT>  (1) 
190.15

>  <PUBCHEM_OPENEYE_CAN_SMILES>  (1) 
C1C(C(C(=O)CC1(C(=O)O)O)O)O

>  <PUBCHEM_OPENEYE_ISO_SMILES>  (1) 
C1C(C(C(=O)CC1(C(=O)O)O)O)O

>  <PUBCHEM_CACTVS_TPSA>  (1) 
115

>  <PUBCHEM_MONOISOTOPIC_WEIGHT>  (1) 
190.047738

>  <PUBCHEM_TOTAL_CHARGE>  (1) 
0

>  <PUBCHEM_HEAVY_ATOM_COUNT>  (1) 
13

>  <PUBCHEM_ATOM_DEF_STEREO_COUNT>  (1) 
0

>  <PUBCHEM_ATOM_UDEF_STEREO_COUNT>  (1) 
3

>  <PUBCHEM_BOND_DEF_STEREO_COUNT>  (1) 
0

>  <PUBCHEM_BOND_UDEF_STEREO_COUNT>  (1) 
0

>  <PUBCHEM_ISOTOPIC_ATOM_COUNT>  (1) 
0

>  <PUBCHEM_COMPONENT_COUNT>  (1) 
1

>  <PUBCHEM_CACTVS_TAUTO_COUNT>  (1) 
-1

>  <PUBCHEM_COORDINATE_TYPE>  (1) 
1
5
255

>  <PUBCHEM_BONDANNOTATIONS>  (1) 
7  1  3
9  2  3
11  3  3

$$$$
