632
     RDKit          2D

 12 12  0  0  1  0  0  0  0  0999 V2000
   -3.8971    0.1250    0.0000 O   0  0  0  0  0  0  0  0  0  0  0  0
   -2.5981   -2.1250    0.0000 O   0  0  0  0  0  0  0  0  0  0  0  0
    2.5981   -2.1250    0.0000 O   0  0  0  0  0  0  0  0  0  0  0  0
    3.8971    0.1250    0.0000 O   0  0  0  0  0  0  0  0  0  0  0  0
    0.0000   -0.6250    0.0000 N   0  0  0  0  0  0  0  0  0  0  0  0
   -1.2990    1.6250    0.0000 C   0  0  0  0  0  0  0  0  0  0  0  0
    0.0000    2.3750    0.0000 C   0  0  0  0  0  0  0  0  0  0  0  0
   -1.2990    0.1250    0.0000 C   0  0  0  0  0  0  0  0  0  0  0  0
    1.2990    1.6250    0.0000 C   0  0  0  0  0  0  0  0  0  0  0  0
    1.2990    0.1250    0.0000 C   0  0  0  0  0  0  0  0  0  0  0  0
   -2.5981   -0.6250    0.0000 C   0  0  0  0  0  0  0  0  0  0  0  0
    2.5981   -0.6250    0.0000 C   0  0  0  0  0  0  0  0  0  0  0  0
  1 11  1  0
  2 11  2  0
  3 12  1  0
  4 12  2  0
  5  8  1  0
  5 10  2  0
  6  7  1  0
  6  8  1  0
  7  9  1  0
  8 11  1  0
  9 10  1  0
 10 12  1  0
M  END
>  <PUBCHEM_COMPOUND_CID>  (1) 
632

>  <PUBCHEM_COMPOUND_CANONICALIZED>  (1) 
1

>  <PUBCHEM_CACTVS_COMPLEXITY>  (1) 
246

>  <PUBCHEM_CACTVS_HBOND_ACCEPTOR>  (1) 
5

>  <PUBCHEM_CACTVS_HBOND_DONOR>  (1) 
2

>  <PUBCHEM_CACTVS_ROTATABLE_BOND>  (1) 
2

>  <PUBCHEM_CACTVS_SUBSKEYS>  (1) 
AAADccBiOAAAAAAAAAAAAAAAAAAAAAAAAAAgAAAAAAAAAAAAAAAAHgAACAAACCjBgAQACAIAAgAoAQCwDAQAAAAAAAAAAAGwAAACABIAgAAAQAAEAAAAAAGYyCCAAAAAAAAAAAAAAAAAAAAAAAAAAAAAAA==

>  <PUBCHEM_IUPAC_OPENEYE_NAME>  (1) 
2,3,4,5-tetrahydropyridine-2,6-dicarboxylic acid

>  <PUBCHEM_IUPAC_CAS_NAME>  (1) 
2,3,4,5-tetrahydropyridine-2,6-dicarboxylic acid

>  <PUBCHEM_IUPAC_NAME_MARKUP>  (1) 
2,3,4,5-tetrahydropyridine-2,6-dicarboxylic acid

>  <PUBCHEM_IUPAC_NAME>  (1) 
2,3,4,5-tetrahydropyridine-2,6-dicarboxylic acid

>  <PUBCHEM_IUPAC_SYSTEMATIC_NAME>  (1) 
2,3,4,5-tetrahydropyridine-2,6-dicarboxylic acid

>  <PUBCHEM_IUPAC_TRADITIONAL_NAME>  (1) 
2,3,4,5-tetrahydropyridine-2,6-dicarboxylic acid

>  <PUBCHEM_IUPAC_INCHI>  (1) 
InChI=1S/C7H9NO4/c9-6(10)4-2-1-3-5(8-4)7(11)12/h4H,1-3H2,(H,9,10)(H,11,12)

>  <PUBCHEM_IUPAC_INCHIKEY>  (1) 
CXMBCXQHOXUCEO-UHFFFAOYSA-N

>  <PUBCHEM_XLOGP3_AA>  (1) 
-0.2

>  <PUBCHEM_EXACT_MASS>  (1) 
171.053158

>  <PUBCHEM_MOLECULAR_FORMULA>  (1) 
C7H9NO4

>  <PUBCHEM_MOLECULAR_WEIGHT>  (1) 
171.15

>  <PUBCHEM_OPENEYE_CAN_SMILES>  (1) 
C1CC(N=C(C1)C(=O)O)C(=O)O

>  <PUBCHEM_OPENEYE_ISO_SMILES>  (1) 
C1CC(N=C(C1)C(=O)O)C(=O)O

>  <PUBCHEM_CACTVS_TPSA>  (1) 
87

>  <PUBCHEM_MONOISOTOPIC_WEIGHT>  (1) 
171.053158

>  <PUBCHEM_TOTAL_CHARGE>  (1) 
0

>  <PUBCHEM_HEAVY_ATOM_COUNT>  (1) 
12

>  <PUBCHEM_ATOM_DEF_STEREO_COUNT>  (1) 
0

>  <PUBCHEM_ATOM_UDEF_STEREO_COUNT>  (1) 
1

>  <PUBCHEM_BOND_DEF_STEREO_COUNT>  (1) 
0

>  <PUBCHEM_BOND_UDEF_STEREO_COUNT>  (1) 
0

>  <PUBCHEM_ISOTOPIC_ATOM_COUNT>  (1) 
0

>  <PUBCHEM_COMPONENT_COUNT>  (1) 
1

>  <PUBCHEM_CACTVS_TAUTO_COUNT>  (1) 
-1

>  <PUBCHEM_COORDINATE_TYPE>  (1) 
1
5
255

>  <PUBCHEM_BONDANNOTATIONS>  (1) 
8  11  3

$$$$
