636
     RDKit          2D

 18 20  0  0  1  0  0  0  0  0999 V2000
   -1.8101   -0.6535    0.0000 O   0  0  0  0  0  0  0  0  0  0  0  0
   -4.8928    1.7049    0.0000 O   0  0  0  0  0  0  0  0  0  0  0  0
   -3.9351   -2.9554    0.0000 O   0  0  0  0  0  0  0  0  0  0  0  0
    0.3324    0.9449    0.0000 N   0  0  0  0  0  0  0  0  0  0  0  0
    2.4808    2.0740    0.0000 N   0  0  0  0  0  0  0  0  0  0  0  0
    1.3468   -1.6011    0.0000 N   0  0  0  0  0  0  0  0  0  0  0  0
    3.9429   -1.7042    0.0000 N   0  0  0  0  0  0  0  0  0  0  0  0
    5.3302    0.4924    0.0000 N   0  0  0  0  0  0  0  0  0  0  0  0
   -1.1460    0.6916    0.0000 C   0  0  0  0  0  0  0  0  0  0  0  0
   -3.5478    1.0409    0.0000 C   0  0  0  0  0  0  0  0  0  0  0  0
   -2.2200    1.7387    0.0000 C   0  0  0  0  0  0  0  0  0  0  0  0
   -3.2944   -0.4375    0.0000 C   0  0  0  0  0  0  0  0  0  0  0  0
   -4.3416   -1.5115    0.0000 C   0  0  0  0  0  0  0  0  0  0  0  0
    1.4064   -0.1023    0.0000 C   0  0  0  0  0  0  0  0  0  0  0  0
    0.9965    2.2899    0.0000 C   0  0  0  0  0  0  0  0  0  0  0  0
    2.7342    0.5956    0.0000 C   0  0  0  0  0  0  0  0  0  0  0  0
    4.0024   -0.2054    0.0000 C   0  0  0  0  0  0  0  0  0  0  0  0
    2.6151   -2.4021    0.0000 C   0  0  0  0  0  0  0  0  0  0  0  0
  1  9  1  0
  1 12  1  0
  2 10  1  0
  3 13  1  0
  4  9  1  0
  4 14  1  0
  4 15  1  0
  5 15  2  0
  5 16  1  0
  6 14  1  0
  6 18  2  0
  7 17  2  0
  7 18  1  0
  8 17  1  0
  9 11  1  0
 10 11  1  0
 10 12  1  0
 12 13  1  0
 14 16  2  0
 16 17  1  0
M  END
>  <PUBCHEM_COMPOUND_CID>  (1) 
636

>  <PUBCHEM_COMPOUND_CANONICALIZED>  (1) 
1

>  <PUBCHEM_CACTVS_COMPLEXITY>  (1) 
307

>  <PUBCHEM_CACTVS_HBOND_ACCEPTOR>  (1) 
7

>  <PUBCHEM_CACTVS_HBOND_DONOR>  (1) 
3

>  <PUBCHEM_CACTVS_ROTATABLE_BOND>  (1) 
2

>  <PUBCHEM_CACTVS_SUBSKEYS>  (1) 
AAADccBzsAAAAAAAAAAAAAAAAAAAAWJAAAAsAAAAAAAAAFgB+AAAHgAQCAAACBzhlwYF8L9MFgCgAQZhZACAgC0REKABUCAoVBCBWAJAyEAeRAgPAALDACCwMAIAAAAAAAAAAAAAAAAAAAAAAAAAAAAAAA==

>  <PUBCHEM_IUPAC_OPENEYE_NAME>  (1) 
5-(6-aminopurin-9-yl)-2-(hydroxymethyl)tetrahydrofuran-3-ol

>  <PUBCHEM_IUPAC_CAS_NAME>  (1) 
5-(6-aminopurin-9-yl)-2-(hydroxymethyl)-3-oxolanol

>  <PUBCHEM_IUPAC_NAME_MARKUP>  (1) 
5-(6-aminopurin-9-yl)-2-(hydroxymethyl)oxolan-3-ol

>  <PUBCHEM_IUPAC_NAME>  (1) 
5-(6-aminopurin-9-yl)-2-(hydroxymethyl)oxolan-3-ol

>  <PUBCHEM_IUPAC_SYSTEMATIC_NAME>  (1) 
5-(6-aminopurin-9-yl)-2-(hydroxymethyl)oxolan-3-ol

>  <PUBCHEM_IUPAC_TRADITIONAL_NAME>  (1) 
5-adenin-9-yl-2-methylol-tetrahydrofuran-3-ol

>  <PUBCHEM_IUPAC_INCHI>  (1) 
InChI=1S/C10H13N5O3/c11-9-8-10(13-3-12-9)15(4-14-8)7-1-5(17)6(2-16)18-7/h3-7,16-17H,1-2H2,(H2,11,12,13)

>  <PUBCHEM_IUPAC_INCHIKEY>  (1) 
OLXZPDWKRNYJJZ-UHFFFAOYSA-N

>  <PUBCHEM_XLOGP3>  (1) 
-0.5

>  <PUBCHEM_EXACT_MASS>  (1) 
251.101839

>  <PUBCHEM_MOLECULAR_FORMULA>  (1) 
C10H13N5O3

>  <PUBCHEM_MOLECULAR_WEIGHT>  (1) 
251.24

>  <PUBCHEM_OPENEYE_CAN_SMILES>  (1) 
C1C(C(OC1N2C=NC3=C(N=CN=C32)N)CO)O

>  <PUBCHEM_OPENEYE_ISO_SMILES>  (1) 
C1C(C(OC1N2C=NC3=C(N=CN=C32)N)CO)O

>  <PUBCHEM_CACTVS_TPSA>  (1) 
119

>  <PUBCHEM_MONOISOTOPIC_WEIGHT>  (1) 
251.101839

>  <PUBCHEM_TOTAL_CHARGE>  (1) 
0

>  <PUBCHEM_HEAVY_ATOM_COUNT>  (1) 
18

>  <PUBCHEM_ATOM_DEF_STEREO_COUNT>  (1) 
0

>  <PUBCHEM_ATOM_UDEF_STEREO_COUNT>  (1) 
3

>  <PUBCHEM_BOND_DEF_STEREO_COUNT>  (1) 
0

>  <PUBCHEM_BOND_UDEF_STEREO_COUNT>  (1) 
0

>  <PUBCHEM_ISOTOPIC_ATOM_COUNT>  (1) 
0

>  <PUBCHEM_COMPONENT_COUNT>  (1) 
1

>  <PUBCHEM_CACTVS_TAUTO_COUNT>  (1) 
-1

>  <PUBCHEM_COORDINATE_TYPE>  (1) 
1
5
255

>  <PUBCHEM_BONDANNOTATIONS>  (1) 
12  13  3
14  16  8
16  17  8
10  2  3
4  14  8
4  15  8
9  4  3
5  15  8
5  16  8
6  14  8
6  18  8
7  17  8
7  18  8

$$$$
