64
     RDKit          2D

 10 10  0  0  1  0  0  0  0  0999 V2000
   -2.5981    1.5000    0.0000 Cl  0  0  0  0  0  0  0  0  0  0  0  0
    2.5981   -1.5000    0.0000 Cl  0  0  0  0  0  0  0  0  0  0  0  0
   -2.5981   -1.5000    0.0000 O   0  0  0  0  0  0  0  0  0  0  0  0
    2.5981    1.5000    0.0000 O   0  0  0  0  0  0  0  0  0  0  0  0
   -1.2990   -0.7500    0.0000 C   0  0  0  0  0  0  0  0  0  0  0  0
    1.2990    0.7500    0.0000 C   0  0  0  0  0  0  0  0  0  0  0  0
   -1.2990    0.7500    0.0000 C   0  0  0  0  0  0  0  0  0  0  0  0
    1.2990   -0.7500    0.0000 C   0  0  0  0  0  0  0  0  0  0  0  0
    0.0000    1.5000    0.0000 C   0  0  0  0  0  0  0  0  0  0  0  0
    0.0000   -1.5000    0.0000 C   0  0  0  0  0  0  0  0  0  0  0  0
  1  7  1  0
  2  8  1  0
  3  5  1  0
  4  6  1  0
  5  7  1  0
  5 10  1  0
  6  8  1  0
  6  9  1  0
  7  9  2  0
  8 10  2  0
M  END
>  <PUBCHEM_COMPOUND_CID>  (1) 
64

>  <PUBCHEM_COMPOUND_CANONICALIZED>  (1) 
1

>  <PUBCHEM_CACTVS_COMPLEXITY>  (1) 
176

>  <PUBCHEM_CACTVS_HBOND_ACCEPTOR>  (1) 
2

>  <PUBCHEM_CACTVS_HBOND_DONOR>  (1) 
2

>  <PUBCHEM_CACTVS_ROTATABLE_BOND>  (1) 
0

>  <PUBCHEM_CACTVS_SUBSKEYS>  (1) 
AAADcYBgMAAGAAAAAAAAAAAAAAAAAAAAAAAgAAAAAAAAAAAAAAAAGgIACAAACBaggAIAAAAAAgCAACBCAAAAAAAgAAAACAAAAwgAFAAAAQAAEAAAAAAIEAIAAAAAAAAAAAAAAAAAAAAAAAAAAAAAAAAAAA==

>  <PUBCHEM_IUPAC_OPENEYE_NAME>  (1) 
2,5-dichlorocyclohexa-2,5-diene-1,4-diol

>  <PUBCHEM_IUPAC_CAS_NAME>  (1) 
2,5-dichlorocyclohexa-2,5-diene-1,4-diol

>  <PUBCHEM_IUPAC_NAME_MARKUP>  (1) 
2,5-dichlorocyclohexa-2,5-diene-1,4-diol

>  <PUBCHEM_IUPAC_NAME>  (1) 
2,5-dichlorocyclohexa-2,5-diene-1,4-diol

>  <PUBCHEM_IUPAC_SYSTEMATIC_NAME>  (1) 
2,5-bis(chloranyl)cyclohexa-2,5-diene-1,4-diol

>  <PUBCHEM_IUPAC_TRADITIONAL_NAME>  (1) 
2,5-dichlorocyclohexa-2,5-diene-1,4-diol

>  <PUBCHEM_IUPAC_INCHI>  (1) 
InChI=1S/C6H6Cl2O2/c7-3-1-5(9)4(8)2-6(3)10/h1-2,5-6,9-10H

>  <PUBCHEM_IUPAC_INCHIKEY>  (1) 
CPXFTNFOQXXRBF-UHFFFAOYSA-N

>  <PUBCHEM_XLOGP3_AA>  (1) 
0.6

>  <PUBCHEM_EXACT_MASS>  (1) 
179.974485

>  <PUBCHEM_MOLECULAR_FORMULA>  (1) 
C6H6Cl2O2

>  <PUBCHEM_MOLECULAR_WEIGHT>  (1) 
181.01

>  <PUBCHEM_OPENEYE_CAN_SMILES>  (1) 
C1=C(C(C=C(C1O)Cl)O)Cl

>  <PUBCHEM_OPENEYE_ISO_SMILES>  (1) 
C1=C(C(C=C(C1O)Cl)O)Cl

>  <PUBCHEM_CACTVS_TPSA>  (1) 
40.5

>  <PUBCHEM_MONOISOTOPIC_WEIGHT>  (1) 
179.974485

>  <PUBCHEM_TOTAL_CHARGE>  (1) 
0

>  <PUBCHEM_HEAVY_ATOM_COUNT>  (1) 
10

>  <PUBCHEM_ATOM_DEF_STEREO_COUNT>  (1) 
0

>  <PUBCHEM_ATOM_UDEF_STEREO_COUNT>  (1) 
2

>  <PUBCHEM_BOND_DEF_STEREO_COUNT>  (1) 
0

>  <PUBCHEM_BOND_UDEF_STEREO_COUNT>  (1) 
0

>  <PUBCHEM_ISOTOPIC_ATOM_COUNT>  (1) 
0

>  <PUBCHEM_COMPONENT_COUNT>  (1) 
1

>  <PUBCHEM_CACTVS_TAUTO_COUNT>  (1) 
-1

>  <PUBCHEM_COORDINATE_TYPE>  (1) 
1
5
255

>  <PUBCHEM_BONDANNOTATIONS>  (1) 
5  3  3
6  4  3

$$$$
