640
     RDKit          2D

 16 17  0  0  1  0  0  0  0  0999 V2000
   -1.4944   -0.7303    0.0000 O   0  0  0  0  0  0  0  0  0  0  0  0
   -3.8803    2.3312    0.0000 O   0  0  0  0  0  0  0  0  0  0  0  0
   -4.1326   -2.4198    0.0000 O   0  0  0  0  0  0  0  0  0  0  0  0
    0.7595   -2.3143    0.0000 O   0  0  0  0  0  0  0  0  0  0  0  0
    5.4661   -0.1124    0.0000 O   0  0  0  0  0  0  0  0  0  0  0  0
    0.9827    0.2742    0.0000 N   0  0  0  0  0  0  0  0  0  0  0  0
    3.1128   -1.2133    0.0000 N   0  0  0  0  0  0  0  0  0  0  0  0
   -2.7470    1.3486    0.0000 C   0  0  0  0  0  0  0  0  0  0  0  0
   -1.2859    1.6878    0.0000 C   0  0  0  0  0  0  0  0  0  0  0  0
   -0.5117    0.4030    0.0000 C   0  0  0  0  0  0  0  0  0  0  0  0
   -2.8759   -0.1459    0.0000 C   0  0  0  0  0  0  0  0  0  0  0  0
   -4.1607   -0.9201    0.0000 C   0  0  0  0  0  0  0  0  0  0  0  0
    1.6184   -1.0845    0.0000 C   0  0  0  0  0  0  0  0  0  0  0  0
    1.8415    1.5040    0.0000 C   0  0  0  0  0  0  0  0  0  0  0  0
    3.3360    1.3751    0.0000 C   0  0  0  0  0  0  0  0  0  0  0  0
    3.9716    0.0165    0.0000 C   0  0  0  0  0  0  0  0  0  0  0  0
  1 10  1  0
  1 11  1  0
  2  8  1  0
  3 12  1  0
  4 13  2  0
  5 16  2  0
  6 10  1  0
  6 13  1  0
  6 14  1  0
  7 13  1  0
  7 16  1  0
  8  9  1  0
  8 11  1  0
  9 10  1  0
 11 12  1  0
 14 15  2  0
 15 16  1  0
M  END
>  <PUBCHEM_COMPOUND_CID>  (1) 
640

>  <PUBCHEM_COMPOUND_CANONICALIZED>  (1) 
1

>  <PUBCHEM_CACTVS_COMPLEXITY>  (1) 
343

>  <PUBCHEM_CACTVS_HBOND_ACCEPTOR>  (1) 
5

>  <PUBCHEM_CACTVS_HBOND_DONOR>  (1) 
3

>  <PUBCHEM_CACTVS_ROTATABLE_BOND>  (1) 
2

>  <PUBCHEM_CACTVS_SUBSKEYS>  (1) 
AAADccBzOAAAAAAAAAAAAAAAAAAAASAAAAAgAAAAAAAAAAAAAAAAHgAQCAAACBThgAYBAAPABgCIACFWUACAAAAAAgAIAAAIAECBEAIAgAAOQAAPFyIDAMCwMAIAAAAAAAAAAAAAAAAAAAAAAAAAAAAAAA==

>  <PUBCHEM_IUPAC_OPENEYE_NAME>  (1) 
1-[4-hydroxy-5-(hydroxymethyl)tetrahydrofuran-2-yl]pyrimidine-2,4-dione

>  <PUBCHEM_IUPAC_CAS_NAME>  (1) 
1-[4-hydroxy-5-(hydroxymethyl)-2-oxolanyl]pyrimidine-2,4-dione

>  <PUBCHEM_IUPAC_NAME_MARKUP>  (1) 
1-[4-hydroxy-5-(hydroxymethyl)oxolan-2-yl]pyrimidine-2,4-dione

>  <PUBCHEM_IUPAC_NAME>  (1) 
1-[4-hydroxy-5-(hydroxymethyl)oxolan-2-yl]pyrimidine-2,4-dione

>  <PUBCHEM_IUPAC_SYSTEMATIC_NAME>  (1) 
1-[5-(hydroxymethyl)-4-oxidanyl-oxolan-2-yl]pyrimidine-2,4-dione

>  <PUBCHEM_IUPAC_TRADITIONAL_NAME>  (1) 
1-(4-hydroxy-5-methylol-tetrahydrofuran-2-yl)pyrimidine-2,4-quinone

>  <PUBCHEM_IUPAC_INCHI>  (1) 
InChI=1S/C9H12N2O5/c12-4-6-5(13)3-8(16-6)11-2-1-7(14)10-9(11)15/h1-2,5-6,8,12-13H,3-4H2,(H,10,14,15)

>  <PUBCHEM_IUPAC_INCHIKEY>  (1) 
MXHRCPNRJAMMIM-UHFFFAOYSA-N

>  <PUBCHEM_XLOGP3>  (1) 
-1.6

>  <PUBCHEM_EXACT_MASS>  (1) 
228.074621

>  <PUBCHEM_MOLECULAR_FORMULA>  (1) 
C9H12N2O5

>  <PUBCHEM_MOLECULAR_WEIGHT>  (1) 
228.2

>  <PUBCHEM_OPENEYE_CAN_SMILES>  (1) 
C1C(C(OC1N2C=CC(=O)NC2=O)CO)O

>  <PUBCHEM_OPENEYE_ISO_SMILES>  (1) 
C1C(C(OC1N2C=CC(=O)NC2=O)CO)O

>  <PUBCHEM_CACTVS_TPSA>  (1) 
99.1

>  <PUBCHEM_MONOISOTOPIC_WEIGHT>  (1) 
228.074621

>  <PUBCHEM_TOTAL_CHARGE>  (1) 
0

>  <PUBCHEM_HEAVY_ATOM_COUNT>  (1) 
16

>  <PUBCHEM_ATOM_DEF_STEREO_COUNT>  (1) 
0

>  <PUBCHEM_ATOM_UDEF_STEREO_COUNT>  (1) 
3

>  <PUBCHEM_BOND_DEF_STEREO_COUNT>  (1) 
0

>  <PUBCHEM_BOND_UDEF_STEREO_COUNT>  (1) 
0

>  <PUBCHEM_ISOTOPIC_ATOM_COUNT>  (1) 
0

>  <PUBCHEM_COMPONENT_COUNT>  (1) 
1

>  <PUBCHEM_CACTVS_TAUTO_COUNT>  (1) 
-1

>  <PUBCHEM_COORDINATE_TYPE>  (1) 
1
5
255

>  <PUBCHEM_BONDANNOTATIONS>  (1) 
11  12  3
14  15  8
15  16  8
8  2  3
10  6  3
6  13  8
6  14  8
7  13  8
7  16  8

$$$$
