643
     RDKit          2D

 15 15  0  0  1  0  0  0  0  0999 V2000
   -4.7797   -2.6037    0.0000 O   0  0  0  0  0  0  0  0  0  0  0  0
    6.8322    0.3748    0.0000 O   0  0  0  0  0  0  0  0  0  0  0  0
    5.3524   -1.7607    0.0000 O   0  0  0  0  0  0  0  0  0  0  0  0
   -2.5709   -1.0982    0.0000 N   0  0  0  0  0  0  0  0  0  0  0  0
   -4.6994    0.0681    0.0000 N   0  0  0  0  0  0  0  0  0  0  0  0
   -2.2919    0.3757    0.0000 C   0  0  0  0  0  0  0  0  0  0  0  0
   -3.6074    1.0965    0.0000 C   0  0  0  0  0  0  0  0  0  0  0  0
   -0.9356    1.0162    0.0000 C   0  0  0  0  0  0  0  0  0  0  0  0
    0.2973    0.1619    0.0000 C   0  0  0  0  0  0  0  0  0  0  0  0
    1.6537    0.8024    0.0000 C   0  0  0  0  0  0  0  0  0  0  0  0
   -3.7974    2.5844    0.0000 C   0  0  0  0  0  0  0  0  0  0  0  0
   -4.0588   -1.2882    0.0000 C   0  0  0  0  0  0  0  0  0  0  0  0
    2.8866   -0.0519    0.0000 C   0  0  0  0  0  0  0  0  0  0  0  0
    4.2430    0.5886    0.0000 C   0  0  0  0  0  0  0  0  0  0  0  0
    5.4759   -0.2657    0.0000 C   0  0  0  0  0  0  0  0  0  0  0  0
  1 12  2  0
  2 15  1  0
  3 15  2  0
  4  6  1  0
  4 12  1  0
  5  7  1  0
  5 12  1  0
  6  7  1  0
  6  8  1  0
  7 11  1  0
  8  9  1  0
  9 10  1  0
 10 13  1  0
 13 14  1  0
 14 15  1  0
M  END
>  <PUBCHEM_COMPOUND_CID>  (1) 
643

>  <PUBCHEM_COMPOUND_CANONICALIZED>  (1) 
1

>  <PUBCHEM_CACTVS_COMPLEXITY>  (1) 
243

>  <PUBCHEM_CACTVS_HBOND_ACCEPTOR>  (1) 
3

>  <PUBCHEM_CACTVS_HBOND_DONOR>  (1) 
3

>  <PUBCHEM_CACTVS_ROTATABLE_BOND>  (1) 
6

>  <PUBCHEM_CACTVS_SUBSKEYS>  (1) 
AAADceBzMAAAAAAAAAAAAAAAAAAAAWAAAAAAAAAAAAAAAAAAAAAAHgAQCAAACCjBgAQDCALAAgAIAACQGAAAAAAAAAAAAIEIAACAQBIAgAAUQAAMFgIAAAGYyKCAAAAAAAAAAAAAAAAAAAAAAAAAAAAAAA==

>  <PUBCHEM_IUPAC_OPENEYE_NAME>  (1) 
6-(5-methyl-2-oxo-imidazolidin-4-yl)hexanoic acid

>  <PUBCHEM_IUPAC_CAS_NAME>  (1) 
6-(5-methyl-2-oxo-4-imidazolidinyl)hexanoic acid

>  <PUBCHEM_IUPAC_NAME_MARKUP>  (1) 
6-(5-methyl-2-oxoimidazolidin-4-yl)hexanoic acid

>  <PUBCHEM_IUPAC_NAME>  (1) 
6-(5-methyl-2-oxoimidazolidin-4-yl)hexanoic acid

>  <PUBCHEM_IUPAC_SYSTEMATIC_NAME>  (1) 
6-(5-methyl-2-oxidanylidene-imidazolidin-4-yl)hexanoic acid

>  <PUBCHEM_IUPAC_TRADITIONAL_NAME>  (1) 
6-(2-keto-5-methyl-imidazolidin-4-yl)hexanoic acid

>  <PUBCHEM_IUPAC_INCHI>  (1) 
InChI=1S/C10H18N2O3/c1-7-8(12-10(15)11-7)5-3-2-4-6-9(13)14/h7-8H,2-6H2,1H3,(H,13,14)(H2,11,12,15)

>  <PUBCHEM_IUPAC_INCHIKEY>  (1) 
AUTOLBMXDDTRRT-UHFFFAOYSA-N

>  <PUBCHEM_XLOGP3_AA>  (1) 
0.8

>  <PUBCHEM_EXACT_MASS>  (1) 
214.131742

>  <PUBCHEM_MOLECULAR_FORMULA>  (1) 
C10H18N2O3

>  <PUBCHEM_MOLECULAR_WEIGHT>  (1) 
214.26

>  <PUBCHEM_OPENEYE_CAN_SMILES>  (1) 
CC1C(NC(=O)N1)CCCCCC(=O)O

>  <PUBCHEM_OPENEYE_ISO_SMILES>  (1) 
CC1C(NC(=O)N1)CCCCCC(=O)O

>  <PUBCHEM_CACTVS_TPSA>  (1) 
78.4

>  <PUBCHEM_MONOISOTOPIC_WEIGHT>  (1) 
214.131742

>  <PUBCHEM_TOTAL_CHARGE>  (1) 
0

>  <PUBCHEM_HEAVY_ATOM_COUNT>  (1) 
15

>  <PUBCHEM_ATOM_DEF_STEREO_COUNT>  (1) 
0

>  <PUBCHEM_ATOM_UDEF_STEREO_COUNT>  (1) 
2

>  <PUBCHEM_BOND_DEF_STEREO_COUNT>  (1) 
0

>  <PUBCHEM_BOND_UDEF_STEREO_COUNT>  (1) 
0

>  <PUBCHEM_ISOTOPIC_ATOM_COUNT>  (1) 
0

>  <PUBCHEM_COMPONENT_COUNT>  (1) 
1

>  <PUBCHEM_CACTVS_TAUTO_COUNT>  (1) 
-1

>  <PUBCHEM_COORDINATE_TYPE>  (1) 
1
5
255

>  <PUBCHEM_BONDANNOTATIONS>  (1) 
6  8  3
7  11  3

$$$$
