648
     RDKit          2D

 11 11  0  0  1  0  0  0  0  0999 V2000
   -3.0682    1.2990    0.0000 O   0  0  0  0  0  0  0  0  0  0  0  0
    2.1818    2.5981    0.0000 O   0  0  0  0  0  0  0  0  0  0  0  0
    2.1818   -2.5981    0.0000 O   0  0  0  0  0  0  0  0  0  0  0  0
   -3.0682   -1.2990    0.0000 O   0  0  0  0  0  0  0  0  0  0  0  0
   -0.0682   -1.2990    0.0000 N   0  0  0  0  0  0  0  0  0  0  0  0
    2.1818    0.0000    0.0000 N   0  0  0  0  0  0  0  0  0  0  0  0
   -0.8182   -0.0000    0.0000 C   0  0  0  0  0  0  0  0  0  0  0  0
   -0.0682    1.2990    0.0000 C   0  0  0  0  0  0  0  0  0  0  0  0
    1.4318    1.2990    0.0000 C   0  0  0  0  0  0  0  0  0  0  0  0
    1.4318   -1.2990    0.0000 C   0  0  0  0  0  0  0  0  0  0  0  0
   -2.3182   -0.0000    0.0000 C   0  0  0  0  0  0  0  0  0  0  0  0
  1 11  1  0
  2  9  2  0
  3 10  2  0
  4 11  2  0
  5  7  1  0
  5 10  1  0
  6  9  1  0
  6 10  1  0
  7  8  1  0
  7 11  1  0
  8  9  1  0
M  END
>  <PUBCHEM_COMPOUND_CID>  (1) 
648

>  <PUBCHEM_COMPOUND_CANONICALIZED>  (1) 
1

>  <PUBCHEM_CACTVS_COMPLEXITY>  (1) 
225

>  <PUBCHEM_CACTVS_HBOND_ACCEPTOR>  (1) 
4

>  <PUBCHEM_CACTVS_HBOND_DONOR>  (1) 
3

>  <PUBCHEM_CACTVS_ROTATABLE_BOND>  (1) 
1

>  <PUBCHEM_CACTVS_SUBSKEYS>  (1) 
AAADcYBjOAAAAAAAAAAAAAAAAAAAAAAAAAAsAAAAAAAAAAAAAAAAHgAQCAAACCjBgAQBCALAAgAIAAGQGAAAAAAAAAAAAIGIAACCABgAwCAEQAAMFyIQAAAnAAAAAAAAAAAAAAAAAAAAAAAAAAAAAAAAAA==

>  <PUBCHEM_IUPAC_OPENEYE_NAME>  (1) 
2,6-dioxohexahydropyrimidine-4-carboxylic acid

>  <PUBCHEM_IUPAC_CAS_NAME>  (1) 
2,6-dioxo-1,3-diazinane-4-carboxylic acid

>  <PUBCHEM_IUPAC_NAME_MARKUP>  (1) 
2,6-dioxo-1,3-diazinane-4-carboxylic acid

>  <PUBCHEM_IUPAC_NAME>  (1) 
2,6-dioxo-1,3-diazinane-4-carboxylic acid

>  <PUBCHEM_IUPAC_SYSTEMATIC_NAME>  (1) 
2,6-bis(oxidanylidene)-1,3-diazinane-4-carboxylic acid

>  <PUBCHEM_IUPAC_TRADITIONAL_NAME>  (1) 
2,6-diketohexahydropyrimidine-4-carboxylic acid

>  <PUBCHEM_IUPAC_INCHI>  (1) 
InChI=1S/C5H6N2O4/c8-3-1-2(4(9)10)6-5(11)7-3/h2H,1H2,(H,9,10)(H2,6,7,8,11)

>  <PUBCHEM_IUPAC_INCHIKEY>  (1) 
UFIVEPVSAGBUSI-UHFFFAOYSA-N

>  <PUBCHEM_XLOGP3_AA>  (1) 
-1.5

>  <PUBCHEM_EXACT_MASS>  (1) 
158.032757

>  <PUBCHEM_MOLECULAR_FORMULA>  (1) 
C5H6N2O4

>  <PUBCHEM_MOLECULAR_WEIGHT>  (1) 
158.11

>  <PUBCHEM_OPENEYE_CAN_SMILES>  (1) 
C1C(NC(=O)NC1=O)C(=O)O

>  <PUBCHEM_OPENEYE_ISO_SMILES>  (1) 
C1C(NC(=O)NC1=O)C(=O)O

>  <PUBCHEM_CACTVS_TPSA>  (1) 
95.5

>  <PUBCHEM_MONOISOTOPIC_WEIGHT>  (1) 
158.032757

>  <PUBCHEM_TOTAL_CHARGE>  (1) 
0

>  <PUBCHEM_HEAVY_ATOM_COUNT>  (1) 
11

>  <PUBCHEM_ATOM_DEF_STEREO_COUNT>  (1) 
0

>  <PUBCHEM_ATOM_UDEF_STEREO_COUNT>  (1) 
1

>  <PUBCHEM_BOND_DEF_STEREO_COUNT>  (1) 
0

>  <PUBCHEM_BOND_UDEF_STEREO_COUNT>  (1) 
0

>  <PUBCHEM_ISOTOPIC_ATOM_COUNT>  (1) 
0

>  <PUBCHEM_COMPONENT_COUNT>  (1) 
1

>  <PUBCHEM_CACTVS_TAUTO_COUNT>  (1) 
-1

>  <PUBCHEM_COORDINATE_TYPE>  (1) 
1
5
255

>  <PUBCHEM_BONDANNOTATIONS>  (1) 
7  11  3

$$$$
