654
     RDKit          2D

  9  8  0  0  0  0  0  0  0  0999 V2000
    0.0000   -0.5774    0.0000 P   0  0  0  0  0  0  0  0  0  0  0  0
   -1.5000   -0.5774    0.0000 O   0  0  0  0  0  0  0  0  0  0  0  0
    1.5000   -0.5774    0.0000 O   0  0  0  0  0  0  0  0  0  0  0  0
    0.0000   -2.0774    0.0000 O   0  0  0  0  0  0  0  0  0  0  0  0
    0.0000    0.9226    0.0000 O   0  0  0  0  0  0  0  0  0  0  0  0
   -2.2500    0.7217    0.0000 C   0  0  0  0  0  0  0  0  0  0  0  0
    2.2500    0.7217    0.0000 C   0  0  0  0  0  0  0  0  0  0  0  0
   -3.7500    0.7217    0.0000 C   0  0  0  0  0  0  0  0  0  0  0  0
    3.7500    0.7217    0.0000 C   0  0  0  0  0  0  0  0  0  0  0  0
  1  2  1  0
  1  3  1  0
  1  4  1  0
  1  5  2  0
  2  6  1  0
  3  7  1  0
  6  8  1  0
  7  9  1  0
M  END
>  <PUBCHEM_COMPOUND_CID>  (1) 
654

>  <PUBCHEM_COMPOUND_CANONICALIZED>  (1) 
1

>  <PUBCHEM_CACTVS_COMPLEXITY>  (1) 
103

>  <PUBCHEM_CACTVS_HBOND_ACCEPTOR>  (1) 
4

>  <PUBCHEM_CACTVS_HBOND_DONOR>  (1) 
1

>  <PUBCHEM_CACTVS_ROTATABLE_BOND>  (1) 
4

>  <PUBCHEM_CACTVS_SUBSKEYS>  (1) 
AAADccBgOAIAAAAAAAAAAAAAAAAAAAAAAAAAAAAAAAAAAAAAAAAAGgAACCAAAACggAICAAAAARAAQAAAAIAAAAAAAAAAAAAAAAAAAAAAAAAAAAAAAAAAAAAAAAAAAAAAAAAAAAAAAAAAAAAAAAAAAAAAAA==

>  <PUBCHEM_IUPAC_OPENEYE_NAME>  (1) 
diethyl hydrogen phosphate

>  <PUBCHEM_IUPAC_CAS_NAME>  (1) 
diethyl hydrogen phosphate

>  <PUBCHEM_IUPAC_NAME_MARKUP>  (1) 
diethyl hydrogen phosphate

>  <PUBCHEM_IUPAC_NAME>  (1) 
diethyl hydrogen phosphate

>  <PUBCHEM_IUPAC_SYSTEMATIC_NAME>  (1) 
diethyl hydrogen phosphate

>  <PUBCHEM_IUPAC_TRADITIONAL_NAME>  (1) 
diethyl hydrogen phosphate

>  <PUBCHEM_IUPAC_INCHI>  (1) 
InChI=1S/C4H11O4P/c1-3-7-9(5,6)8-4-2/h3-4H2,1-2H3,(H,5,6)

>  <PUBCHEM_IUPAC_INCHIKEY>  (1) 
UCQFCFPECQILOL-UHFFFAOYSA-N

>  <PUBCHEM_XLOGP3_AA>  (1) 
-0.3

>  <PUBCHEM_EXACT_MASS>  (1) 
154.039496

>  <PUBCHEM_MOLECULAR_FORMULA>  (1) 
C4H11O4P

>  <PUBCHEM_MOLECULAR_WEIGHT>  (1) 
154.1

>  <PUBCHEM_OPENEYE_CAN_SMILES>  (1) 
CCOP(=O)(O)OCC

>  <PUBCHEM_OPENEYE_ISO_SMILES>  (1) 
CCOP(=O)(O)OCC

>  <PUBCHEM_CACTVS_TPSA>  (1) 
55.8

>  <PUBCHEM_MONOISOTOPIC_WEIGHT>  (1) 
154.039496

>  <PUBCHEM_TOTAL_CHARGE>  (1) 
0

>  <PUBCHEM_HEAVY_ATOM_COUNT>  (1) 
9

>  <PUBCHEM_ATOM_DEF_STEREO_COUNT>  (1) 
0

>  <PUBCHEM_ATOM_UDEF_STEREO_COUNT>  (1) 
0

>  <PUBCHEM_BOND_DEF_STEREO_COUNT>  (1) 
0

>  <PUBCHEM_BOND_UDEF_STEREO_COUNT>  (1) 
0

>  <PUBCHEM_ISOTOPIC_ATOM_COUNT>  (1) 
0

>  <PUBCHEM_COMPONENT_COUNT>  (1) 
1

>  <PUBCHEM_CACTVS_TAUTO_COUNT>  (1) 
-1

>  <PUBCHEM_COORDINATE_TYPE>  (1) 
1
5
255

$$$$
