656
     RDKit          2D

 47 48  0  0  1  0  0  0  0  0999 V2000
   -5.5202   -0.5742    0.0000 O   0  0  0  0  0  0  0  0  0  0  0  0
   -2.1056    1.4483    0.0000 O   0  0  0  0  0  0  0  0  0  0  0  0
   -2.5681   -1.1083    0.0000 O   0  0  0  0  0  0  0  0  0  0  0  0
   -7.5030    1.1047    0.0000 O   0  0  0  0  0  0  0  0  0  0  0  0
   -6.5337    2.2495    0.0000 O   0  0  0  0  0  0  0  0  0  0  0  0
   -4.5951    4.5390    0.0000 O   0  0  0  0  0  0  0  0  0  0  0  0
   -7.4588   -2.8637    0.0000 O   0  0  0  0  0  0  0  0  0  0  0  0
  -10.4109   -2.3296    0.0000 O   0  0  0  0  0  0  0  0  0  0  0  0
  -11.4243    0.4941    0.0000 O   0  0  0  0  0  0  0  0  0  0  0  0
   -0.1670    3.7378    0.0000 O   0  0  0  0  0  0  0  0  0  0  0  0
   -8.5165    3.9283    0.0000 O   0  0  0  0  0  0  0  0  0  0  0  0
   14.5492    5.0356    0.0000 O   0  0  0  0  0  0  0  0  0  0  0  0
   14.0866    2.4791    0.0000 O   0  0  0  0  0  0  0  0  0  0  0  0
   -4.5509    0.5706    0.0000 C   0  0  0  0  0  0  0  0  0  0  0  0
   -5.0576    1.9824    0.0000 C   0  0  0  0  0  0  0  0  0  0  0  0
   -3.0749    0.3035    0.0000 C   0  0  0  0  0  0  0  0  0  0  0  0
   -4.0884    3.1272    0.0000 C   0  0  0  0  0  0  0  0  0  0  0  0
   -2.6123    2.8601    0.0000 C   0  0  0  0  0  0  0  0  0  0  0  0
   -6.9962   -0.3071    0.0000 C   0  0  0  0  0  0  0  0  0  0  0  0
   -7.9655   -1.4519    0.0000 C   0  0  0  0  0  0  0  0  0  0  0  0
   -9.4416   -1.1848    0.0000 C   0  0  0  0  0  0  0  0  0  0  0  0
   -1.0921   -1.3753    0.0000 C   0  0  0  0  0  0  0  0  0  0  0  0
   -9.9483    0.2270    0.0000 C   0  0  0  0  0  0  0  0  0  0  0  0
   -8.9790    1.3718    0.0000 C   0  0  0  0  0  0  0  0  0  0  0  0
   -0.1228   -0.2306    0.0000 C   0  0  0  0  0  0  0  0  0  0  0  0
   -0.5854   -2.7871    0.0000 C   0  0  0  0  0  0  0  0  0  0  0  0
   -1.6430    4.0049    0.0000 C   0  0  0  0  0  0  0  0  0  0  0  0
    1.3532   -0.4976    0.0000 C   0  0  0  0  0  0  0  0  0  0  0  0
    0.8907   -3.0542    0.0000 C   0  0  0  0  0  0  0  0  0  0  0  0
   -9.4858    2.7836    0.0000 C   0  0  0  0  0  0  0  0  0  0  0  0
    2.3225    0.6471    0.0000 C   0  0  0  0  0  0  0  0  0  0  0  0
    1.3974   -4.4660    0.0000 C   0  0  0  0  0  0  0  0  0  0  0  0
    3.7986    0.3801    0.0000 C   0  0  0  0  0  0  0  0  0  0  0  0
    2.8735   -4.7331    0.0000 C   0  0  0  0  0  0  0  0  0  0  0  0
    4.7679    1.5248    0.0000 C   0  0  0  0  0  0  0  0  0  0  0  0
    3.3802   -6.1449    0.0000 C   0  0  0  0  0  0  0  0  0  0  0  0
    6.2439    1.2578    0.0000 C   0  0  0  0  0  0  0  0  0  0  0  0
    4.8562   -6.4119    0.0000 C   0  0  0  0  0  0  0  0  0  0  0  0
    7.2132    2.4025    0.0000 C   0  0  0  0  0  0  0  0  0  0  0  0
    8.6892    2.1355    0.0000 C   0  0  0  0  0  0  0  0  0  0  0  0
    5.3630   -7.8237    0.0000 C   0  0  0  0  0  0  0  0  0  0  0  0
    9.6585    3.2802    0.0000 C   0  0  0  0  0  0  0  0  0  0  0  0
    6.8390   -8.0908    0.0000 C   0  0  0  0  0  0  0  0  0  0  0  0
   11.1346    3.0132    0.0000 C   0  0  0  0  0  0  0  0  0  0  0  0
    7.3457   -9.5026    0.0000 C   0  0  0  0  0  0  0  0  0  0  0  0
   12.1039    4.1579    0.0000 C   0  0  0  0  0  0  0  0  0  0  0  0
   13.5799    3.8909    0.0000 C   0  0  0  0  0  0  0  0  0  0  0  0
  1 14  1  0
  1 19  1  0
  2 16  1  0
  2 18  1  0
  3 16  1  0
  3 22  1  0
  4 19  1  0
  4 24  1  0
  5 15  1  0
  6 17  1  0
  7 20  1  0
  8 21  1  0
  9 23  1  0
 10 27  1  0
 11 30  1  0
 12 47  1  0
 13 47  2  0
 14 15  1  0
 14 16  1  0
 15 17  1  0
 17 18  1  0
 18 27  1  0
 19 20  1  0
 20 21  1  0
 21 23  1  0
 22 25  1  0
 22 26  1  0
 23 24  1  0
 24 30  1  0
 25 28  1  0
 26 29  1  0
 28 31  1  0
 29 32  1  0
 31 33  1  0
 32 34  1  0
 33 35  1  0
 34 36  1  0
 35 37  1  0
 36 38  1  0
 37 39  1  0
 38 41  1  0
 39 40  1  0
 40 42  1  0
 41 43  1  0
 42 44  1  0
 43 45  1  0
 44 46  1  0
 46 47  1  0
M  END
>  <PUBCHEM_COMPOUND_CID>  (1) 
656

>  <PUBCHEM_COMPOUND_CANONICALIZED>  (1) 
1

>  <PUBCHEM_CACTVS_COMPLEXITY>  (1) 
804

>  <PUBCHEM_CACTVS_HBOND_ACCEPTOR>  (1) 
13

>  <PUBCHEM_CACTVS_HBOND_DONOR>  (1) 
8

>  <PUBCHEM_CACTVS_ROTATABLE_BOND>  (1) 
26

>  <PUBCHEM_CACTVS_SUBSKEYS>  (1) 
AAADcfB8PAAAAAAAAAAAAAAAAAAAAAAAAAAkSAAAAAAAAAAAAAAAGgAACAAACBSwgAMCCAAABgAIAACQCAAAAAAAAAAAAAEAAAAREBIAAAAiQAAFAAAHAAHI6KyAAAAAAAAAAAAAAAAAAAAAAAAAAAAAAA==

>  <PUBCHEM_IUPAC_OPENEYE_NAME>  (1) 
13-[4,5-dihydroxy-6-(hydroxymethyl)-3-[3,4,5-trihydroxy-6-(hydroxymethyl)tetrahydropyran-2-yl]oxy-tetrahydropyran-2-yl]oxydocosanoic acid

>  <PUBCHEM_IUPAC_CAS_NAME>  (1) 
13-[[4,5-dihydroxy-6-(hydroxymethyl)-3-[[3,4,5-trihydroxy-6-(hydroxymethyl)-2-oxanyl]oxy]-2-oxanyl]oxy]docosanoic acid

>  <PUBCHEM_IUPAC_NAME_MARKUP>  (1) 
13-[4,5-dihydroxy-6-(hydroxymethyl)-3-[3,4,5-trihydroxy-6-(hydroxymethyl)oxan-2-yl]oxyoxan-2-yl]oxydocosanoic acid

>  <PUBCHEM_IUPAC_NAME>  (1) 
13-[4,5-dihydroxy-6-(hydroxymethyl)-3-[3,4,5-trihydroxy-6-(hydroxymethyl)oxan-2-yl]oxyoxan-2-yl]oxydocosanoic acid

>  <PUBCHEM_IUPAC_SYSTEMATIC_NAME>  (1) 
13-[6-(hydroxymethyl)-3-[6-(hydroxymethyl)-3,4,5-tris(oxidanyl)oxan-2-yl]oxy-4,5-bis(oxidanyl)oxan-2-yl]oxydocosanoic acid

>  <PUBCHEM_IUPAC_TRADITIONAL_NAME>  (1) 
13-[4,5-dihydroxy-6-methylol-3-(3,4,5-trihydroxy-6-methylol-tetrahydropyran-2-yl)oxy-tetrahydropyran-2-yl]oxybehenic acid

>  <PUBCHEM_IUPAC_INCHI>  (1) 
InChI=1S/C34H64O13/c1-2-3-4-5-9-12-15-18-23(19-16-13-10-7-6-8-11-14-17-20-26(37)38)44-34-32(30(42)28(40)25(22-36)46-34)47-33-31(43)29(41)27(39)24(21-35)45-33/h23-25,27-36,39-43H,2-22H2,1H3,(H,37,38)

>  <PUBCHEM_IUPAC_INCHIKEY>  (1) 
OAKLJPBSRRDONB-UHFFFAOYSA-N

>  <PUBCHEM_XLOGP3_AA>  (1) 
5.3

>  <PUBCHEM_EXACT_MASS>  (1) 
680.434692

>  <PUBCHEM_MOLECULAR_FORMULA>  (1) 
C34H64O13

>  <PUBCHEM_MOLECULAR_WEIGHT>  (1) 
680.9

>  <PUBCHEM_OPENEYE_CAN_SMILES>  (1) 
CCCCCCCCCC(CCCCCCCCCCCC(=O)O)OC1C(C(C(C(O1)CO)O)O)OC2C(C(C(C(O2)CO)O)O)O

>  <PUBCHEM_OPENEYE_ISO_SMILES>  (1) 
CCCCCCCCCC(CCCCCCCCCCCC(=O)O)OC1C(C(C(C(O1)CO)O)O)OC2C(C(C(C(O2)CO)O)O)O

>  <PUBCHEM_CACTVS_TPSA>  (1) 
216

>  <PUBCHEM_MONOISOTOPIC_WEIGHT>  (1) 
680.434692

>  <PUBCHEM_TOTAL_CHARGE>  (1) 
0

>  <PUBCHEM_HEAVY_ATOM_COUNT>  (1) 
47

>  <PUBCHEM_ATOM_DEF_STEREO_COUNT>  (1) 
0

>  <PUBCHEM_ATOM_UDEF_STEREO_COUNT>  (1) 
11

>  <PUBCHEM_BOND_DEF_STEREO_COUNT>  (1) 
0

>  <PUBCHEM_BOND_UDEF_STEREO_COUNT>  (1) 
0

>  <PUBCHEM_ISOTOPIC_ATOM_COUNT>  (1) 
0

>  <PUBCHEM_COMPONENT_COUNT>  (1) 
1

>  <PUBCHEM_CACTVS_TAUTO_COUNT>  (1) 
-1

>  <PUBCHEM_COORDINATE_TYPE>  (1) 
1
5
255

>  <PUBCHEM_BONDANNOTATIONS>  (1) 
14  1  3
19  1  3
18  27  3
22  26  3
24  30  3
16  3  3
15  5  3
17  6  3
20  7  3
21  8  3
23  9  3

$$$$
