66
     RDKit          2D

  9  9  0  0  0  0  0  0  0  0999 V2000
   -2.6931    0.9264    0.0000 Cl  0  0  0  0  0  0  0  0  0  0  0  0
    3.1492   -0.4401    0.0000 Cl  0  0  0  0  0  0  0  0  0  0  0  0
   -1.8243   -1.9450    0.0000 O   0  0  0  0  0  0  0  0  0  0  0  0
   -0.7981   -0.8510    0.0000 C   0  0  0  0  0  0  0  0  0  0  0  0
   -1.2325    0.5848    0.0000 C   0  0  0  0  0  0  0  0  0  0  0  0
    0.6625   -1.1926    0.0000 C   0  0  0  0  0  0  0  0  0  0  0  0
    1.6886   -0.0985    0.0000 C   0  0  0  0  0  0  0  0  0  0  0  0
   -0.2064    1.6788    0.0000 C   0  0  0  0  0  0  0  0  0  0  0  0
    1.2542    1.3372    0.0000 C   0  0  0  0  0  0  0  0  0  0  0  0
  1  5  1  0
  2  7  1  0
  3  4  1  0
  4  5  2  0
  4  6  1  0
  5  8  1  0
  6  7  2  0
  7  9  1  0
  8  9  2  0
M  END
>  <PUBCHEM_COMPOUND_CID>  (1) 
66

>  <PUBCHEM_COMPOUND_CANONICALIZED>  (1) 
1

>  <PUBCHEM_CACTVS_COMPLEXITY>  (1) 
97.1

>  <PUBCHEM_CACTVS_HBOND_ACCEPTOR>  (1) 
1

>  <PUBCHEM_CACTVS_HBOND_DONOR>  (1) 
1

>  <PUBCHEM_CACTVS_ROTATABLE_BOND>  (1) 
0

>  <PUBCHEM_CACTVS_SUBSKEYS>  (1) 
AAADcYBgIAAGAAAAAAAAAAAAAAAAAAAAAAAwAAAAAAAAAAABAAAAGgIACAAACAaAkCAwBoAAAgCAACBCAAACAAAgJUAIiAAGC4gIJiKDExKAcAAkwBEImAeAQAAAAAAQAQAACAAAACACAAAQAAAAAAAAAA==

>  <PUBCHEM_IUPAC_OPENEYE_NAME>  (1) 
2,5-dichlorophenol

>  <PUBCHEM_IUPAC_CAS_NAME>  (1) 
2,5-dichlorophenol

>  <PUBCHEM_IUPAC_NAME_MARKUP>  (1) 
2,5-dichlorophenol

>  <PUBCHEM_IUPAC_NAME>  (1) 
2,5-dichlorophenol

>  <PUBCHEM_IUPAC_SYSTEMATIC_NAME>  (1) 
2,5-bis(chloranyl)phenol

>  <PUBCHEM_IUPAC_TRADITIONAL_NAME>  (1) 
2,5-dichlorophenol

>  <PUBCHEM_IUPAC_INCHI>  (1) 
InChI=1S/C6H4Cl2O/c7-4-1-2-5(8)6(9)3-4/h1-3,9H

>  <PUBCHEM_IUPAC_INCHIKEY>  (1) 
RANCECPPZPIPNO-UHFFFAOYSA-N

>  <PUBCHEM_XLOGP3>  (1) 
3.1

>  <PUBCHEM_EXACT_MASS>  (1) 
161.96392

>  <PUBCHEM_MOLECULAR_FORMULA>  (1) 
C6H4Cl2O

>  <PUBCHEM_MOLECULAR_WEIGHT>  (1) 
163

>  <PUBCHEM_OPENEYE_CAN_SMILES>  (1) 
C1=CC(=C(C=C1Cl)O)Cl

>  <PUBCHEM_OPENEYE_ISO_SMILES>  (1) 
C1=CC(=C(C=C1Cl)O)Cl

>  <PUBCHEM_CACTVS_TPSA>  (1) 
20.2

>  <PUBCHEM_MONOISOTOPIC_WEIGHT>  (1) 
161.96392

>  <PUBCHEM_TOTAL_CHARGE>  (1) 
0

>  <PUBCHEM_HEAVY_ATOM_COUNT>  (1) 
9

>  <PUBCHEM_ATOM_DEF_STEREO_COUNT>  (1) 
0

>  <PUBCHEM_ATOM_UDEF_STEREO_COUNT>  (1) 
0

>  <PUBCHEM_BOND_DEF_STEREO_COUNT>  (1) 
0

>  <PUBCHEM_BOND_UDEF_STEREO_COUNT>  (1) 
0

>  <PUBCHEM_ISOTOPIC_ATOM_COUNT>  (1) 
0

>  <PUBCHEM_COMPONENT_COUNT>  (1) 
1

>  <PUBCHEM_CACTVS_TAUTO_COUNT>  (1) 
-1

>  <PUBCHEM_COORDINATE_TYPE>  (1) 
1
5
255

>  <PUBCHEM_BONDANNOTATIONS>  (1) 
4  5  8
4  6  8
5  8  8
6  7  8
7  9  8
8  9  8

$$$$
