660
     RDKit          2D

 11 12  0  0  0  0  0  0  0  0999 V2000
   -1.1442    1.2012    0.0000 O   0  0  0  0  0  0  0  0  0  0  0  0
   -3.7110    0.7996    0.0000 O   0  0  0  0  0  0  0  0  0  0  0  0
   -0.6805   -1.7627    0.0000 C   0  0  0  0  0  0  0  0  0  0  0  0
    0.4870   -0.8209    0.0000 C   0  0  0  0  0  0  0  0  0  0  0  0
   -2.0798   -1.2225    0.0000 C   0  0  0  0  0  0  0  0  0  0  0  0
    0.2552    0.6610    0.0000 C   0  0  0  0  0  0  0  0  0  0  0  0
   -2.3117    0.2594    0.0000 C   0  0  0  0  0  0  0  0  0  0  0  0
    1.8864   -1.3611    0.0000 C   0  0  0  0  0  0  0  0  0  0  0  0
    1.4227    1.6028    0.0000 C   0  0  0  0  0  0  0  0  0  0  0  0
    3.0539   -0.4194    0.0000 C   0  0  0  0  0  0  0  0  0  0  0  0
    2.8220    1.0626    0.0000 C   0  0  0  0  0  0  0  0  0  0  0  0
  1  6  1  0
  1  7  1  0
  2  7  2  0
  3  4  1  0
  3  5  1  0
  4  6  2  0
  4  8  1  0
  5  7  1  0
  6  9  1  0
  8 10  2  0
  9 11  2  0
 10 11  1  0
M  END
>  <PUBCHEM_COMPOUND_CID>  (1) 
660

>  <PUBCHEM_COMPOUND_CANONICALIZED>  (1) 
1

>  <PUBCHEM_CACTVS_COMPLEXITY>  (1) 
165

>  <PUBCHEM_CACTVS_HBOND_ACCEPTOR>  (1) 
2

>  <PUBCHEM_CACTVS_HBOND_DONOR>  (1) 
0

>  <PUBCHEM_CACTVS_ROTATABLE_BOND>  (1) 
0

>  <PUBCHEM_CACTVS_SUBSKEYS>  (1) 
AAADccBwMAAAAAAAAAAAAAAAAAAAAAAAAAA0QAAAAAAAAACRAAAAGgAAAAAADASAmAAwDoAABACIAiDSCAACCAAgIAAIiAEGCIgMJjKEMRqCOiCkwBEIqAeIzKDOAAAAAAAIAAAAAAAAABAAAAAAAAAAAA==

>  <PUBCHEM_IUPAC_OPENEYE_NAME>  (1) 
chroman-2-one

>  <PUBCHEM_IUPAC_CAS_NAME>  (1) 
3,4-dihydro-2H-1-benzopyran-2-one

>  <PUBCHEM_IUPAC_NAME_MARKUP>  (1) 
3,4-dihydrochromen-2-one

>  <PUBCHEM_IUPAC_NAME>  (1) 
3,4-dihydrochromen-2-one

>  <PUBCHEM_IUPAC_SYSTEMATIC_NAME>  (1) 
3,4-dihydrochromen-2-one

>  <PUBCHEM_IUPAC_TRADITIONAL_NAME>  (1) 
chroman-2-one

>  <PUBCHEM_IUPAC_INCHI>  (1) 
InChI=1S/C9H8O2/c10-9-6-5-7-3-1-2-4-8(7)11-9/h1-4H,5-6H2

>  <PUBCHEM_IUPAC_INCHIKEY>  (1) 
VMUXSMXIQBNMGZ-UHFFFAOYSA-N

>  <PUBCHEM_XLOGP3_AA>  (1) 
1.6

>  <PUBCHEM_EXACT_MASS>  (1) 
148.052429

>  <PUBCHEM_MOLECULAR_FORMULA>  (1) 
C9H8O2

>  <PUBCHEM_MOLECULAR_WEIGHT>  (1) 
148.16

>  <PUBCHEM_OPENEYE_CAN_SMILES>  (1) 
C1CC(=O)OC2=CC=CC=C21

>  <PUBCHEM_OPENEYE_ISO_SMILES>  (1) 
C1CC(=O)OC2=CC=CC=C21

>  <PUBCHEM_CACTVS_TPSA>  (1) 
26.3

>  <PUBCHEM_MONOISOTOPIC_WEIGHT>  (1) 
148.052429

>  <PUBCHEM_TOTAL_CHARGE>  (1) 
0

>  <PUBCHEM_HEAVY_ATOM_COUNT>  (1) 
11

>  <PUBCHEM_ATOM_DEF_STEREO_COUNT>  (1) 
0

>  <PUBCHEM_ATOM_UDEF_STEREO_COUNT>  (1) 
0

>  <PUBCHEM_BOND_DEF_STEREO_COUNT>  (1) 
0

>  <PUBCHEM_BOND_UDEF_STEREO_COUNT>  (1) 
0

>  <PUBCHEM_ISOTOPIC_ATOM_COUNT>  (1) 
0

>  <PUBCHEM_COMPONENT_COUNT>  (1) 
1

>  <PUBCHEM_CACTVS_TAUTO_COUNT>  (1) 
-1

>  <PUBCHEM_COORDINATE_TYPE>  (1) 
1
5
255

>  <PUBCHEM_BONDANNOTATIONS>  (1) 
10  11  8
4  6  8
4  8  8
6  9  8
8  10  8
9  11  8

$$$$
