662
     RDKit          2D

 21 23  0  0  1  0  0  0  0  0999 V2000
    0.1672    1.1008    0.0000 O   0  0  0  0  0  0  0  0  0  0  0  0
   -1.1594   -2.6395    0.0000 O   0  0  0  0  0  0  0  0  0  0  0  0
    1.8066   -3.0899    0.0000 O   0  0  0  0  0  0  0  0  0  0  0  0
    4.2261   -2.1434    0.0000 O   0  0  0  0  0  0  0  0  0  0  0  0
    5.0062    2.9939    0.0000 O   0  0  0  0  0  0  0  0  0  0  0  0
   -6.7014    0.8299    0.0000 O   0  0  0  0  0  0  0  0  0  0  0  0
   -0.7694   -0.0709    0.0000 C   0  0  0  0  0  0  0  0  0  0  0  0
   -0.2229   -1.4678    0.0000 C   0  0  0  0  0  0  0  0  0  0  0  0
   -2.2524    0.1543    0.0000 C   0  0  0  0  0  0  0  0  0  0  0  0
    1.2601   -1.6930    0.0000 C   0  0  0  0  0  0  0  0  0  0  0  0
    2.1966   -0.5213    0.0000 C   0  0  0  0  0  0  0  0  0  0  0  0
    1.6502    0.8756    0.0000 C   0  0  0  0  0  0  0  0  0  0  0  0
    3.6796   -0.7465    0.0000 C   0  0  0  0  0  0  0  0  0  0  0  0
    2.5867    2.0474    0.0000 C   0  0  0  0  0  0  0  0  0  0  0  0
   -2.7988    1.5512    0.0000 C   0  0  0  0  0  0  0  0  0  0  0  0
   -3.1889   -1.0174    0.0000 C   0  0  0  0  0  0  0  0  0  0  0  0
    4.6162    0.4252    0.0000 C   0  0  0  0  0  0  0  0  0  0  0  0
    4.0697    1.8221    0.0000 C   0  0  0  0  0  0  0  0  0  0  0  0
   -4.2818    1.7764    0.0000 C   0  0  0  0  0  0  0  0  0  0  0  0
   -4.6719   -0.7922    0.0000 C   0  0  0  0  0  0  0  0  0  0  0  0
   -5.2184    0.6047    0.0000 C   0  0  0  0  0  0  0  0  0  0  0  0
  1  7  1  0
  1 12  1  0
  2  8  1  0
  3 10  2  0
  4 13  1  0
  5 18  1  0
  6 21  1  0
  7  8  1  0
  7  9  1  0
  8 10  1  0
  9 15  2  0
  9 16  1  0
 10 11  1  0
 11 12  2  0
 11 13  1  0
 12 14  1  0
 13 17  2  0
 14 18  2  0
 15 19  1  0
 16 20  2  0
 17 18  1  0
 19 21  2  0
 20 21  1  0
M  END
>  <PUBCHEM_COMPOUND_CID>  (1) 
662

>  <PUBCHEM_COMPOUND_CANONICALIZED>  (1) 
1

>  <PUBCHEM_CACTVS_COMPLEXITY>  (1) 
392

>  <PUBCHEM_CACTVS_HBOND_ACCEPTOR>  (1) 
6

>  <PUBCHEM_CACTVS_HBOND_DONOR>  (1) 
4

>  <PUBCHEM_CACTVS_ROTATABLE_BOND>  (1) 
1

>  <PUBCHEM_CACTVS_SUBSKEYS>  (1) 
AAADccBwOAAAAAAAAAAAAAAAAAAAAAAAAAA0YIAAAAAAAACRQAAAGgAACAAADBSgmAIwBoAABgCIAqBSAAICCAAkIAAIiAFGCMgNNzaGNRqCeWCl4BULuQfI7OzOIAAACAAIAABAAAAQABAAAAAAAAAAAA==

>  <PUBCHEM_IUPAC_OPENEYE_NAME>  (1) 
3,5,7-trihydroxy-2-(4-hydroxyphenyl)chroman-4-one

>  <PUBCHEM_IUPAC_CAS_NAME>  (1) 
3,5,7-trihydroxy-2-(4-hydroxyphenyl)-3,4-dihydro-2H-1-benzopyran-4-one

>  <PUBCHEM_IUPAC_NAME_MARKUP>  (1) 
3,5,7-trihydroxy-2-(4-hydroxyphenyl)-2,3-dihydrochromen-4-one

>  <PUBCHEM_IUPAC_NAME>  (1) 
3,5,7-trihydroxy-2-(4-hydroxyphenyl)-2,3-dihydrochromen-4-one

>  <PUBCHEM_IUPAC_SYSTEMATIC_NAME>  (1) 
2-(4-hydroxyphenyl)-3,5,7-tris(oxidanyl)-2,3-dihydrochromen-4-one

>  <PUBCHEM_IUPAC_TRADITIONAL_NAME>  (1) 
3,5,7-trihydroxy-2-(4-hydroxyphenyl)chroman-4-one

>  <PUBCHEM_IUPAC_INCHI>  (1) 
InChI=1S/C15H12O6/c16-8-3-1-7(2-4-8)15-14(20)13(19)12-10(18)5-9(17)6-11(12)21-15/h1-6,14-18,20H

>  <PUBCHEM_IUPAC_INCHIKEY>  (1) 
PADQINQHPQKXNL-UHFFFAOYSA-N

>  <PUBCHEM_XLOGP3_AA>  (1) 
1.8

>  <PUBCHEM_EXACT_MASS>  (1) 
288.063388

>  <PUBCHEM_MOLECULAR_FORMULA>  (1) 
C15H12O6

>  <PUBCHEM_MOLECULAR_WEIGHT>  (1) 
288.25

>  <PUBCHEM_OPENEYE_CAN_SMILES>  (1) 
C1=CC(=CC=C1C2C(C(=O)C3=C(C=C(C=C3O2)O)O)O)O

>  <PUBCHEM_OPENEYE_ISO_SMILES>  (1) 
C1=CC(=CC=C1C2C(C(=O)C3=C(C=C(C=C3O2)O)O)O)O

>  <PUBCHEM_CACTVS_TPSA>  (1) 
107

>  <PUBCHEM_MONOISOTOPIC_WEIGHT>  (1) 
288.063388

>  <PUBCHEM_TOTAL_CHARGE>  (1) 
0

>  <PUBCHEM_HEAVY_ATOM_COUNT>  (1) 
21

>  <PUBCHEM_ATOM_DEF_STEREO_COUNT>  (1) 
0

>  <PUBCHEM_ATOM_UDEF_STEREO_COUNT>  (1) 
2

>  <PUBCHEM_BOND_DEF_STEREO_COUNT>  (1) 
0

>  <PUBCHEM_BOND_UDEF_STEREO_COUNT>  (1) 
0

>  <PUBCHEM_ISOTOPIC_ATOM_COUNT>  (1) 
0

>  <PUBCHEM_COMPONENT_COUNT>  (1) 
1

>  <PUBCHEM_CACTVS_TAUTO_COUNT>  (1) 
-1

>  <PUBCHEM_COORDINATE_TYPE>  (1) 
1
5
255

>  <PUBCHEM_BONDANNOTATIONS>  (1) 
11  12  8
11  13  8
12  14  8
13  17  8
14  18  8
15  19  8
16  20  8
17  18  8
19  21  8
8  2  3
20  21  8
7  9  3
9  15  8
9  16  8

$$$$
