667
     RDKit          2D

 62 66  0  0  1  0  0  0  0  0999 V2000
   -4.5695    6.7940    0.0000 O   0  0  0  0  0  0  0  0  0  0  0  0
   -6.3558    4.9074    0.0000 O   0  0  0  0  0  0  0  0  0  0  0  0
   -6.4251   -4.4145    0.0000 O   0  0  0  0  0  0  0  0  0  0  0  0
   -9.7217    3.2192    0.0000 O   0  0  0  0  0  0  0  0  0  0  0  0
   -4.5385   -6.2008    0.0000 O   0  0  0  0  0  0  0  0  0  0  0  0
   -9.2454    0.6652    0.0000 O   0  0  0  0  0  0  0  0  0  0  0  0
   -2.8503   -9.5666    0.0000 O   0  0  0  0  0  0  0  0  0  0  0  0
   -0.2963   -9.0903    0.0000 O   0  0  0  0  0  0  0  0  0  0  0  0
   -0.1641    8.4175    0.0000 O   0  0  0  0  0  0  0  0  0  0  0  0
   -1.0286    5.9674    0.0000 O   0  0  0  0  0  0  0  0  0  0  0  0
    5.0433   -6.2355    0.0000 O   0  0  0  0  0  0  0  0  0  0  0  0
    8.3496    4.1947    0.0000 O   0  0  0  0  0  0  0  0  0  0  0  0
    2.8266   -4.8805    0.0000 O   0  0  0  0  0  0  0  0  0  0  0  0
    7.1073    6.4766    0.0000 O   0  0  0  0  0  0  0  0  0  0  0  0
    9.9355   -2.6953    0.0000 O   0  0  0  0  0  0  0  0  0  0  0  0
    9.4592   -0.1412    0.0000 O   0  0  0  0  0  0  0  0  0  0  0  0
   -2.4150    1.1761    0.0000 N   0  0  0  0  0  0  0  0  0  0  0  0
   -1.5443   -3.2098    0.0000 N   0  0  0  0  0  0  0  0  0  0  0  0
    1.7581    3.7337    0.0000 N   0  0  0  0  0  0  0  0  0  0  0  0
    3.5786   -1.3892    0.0000 N   0  0  0  0  0  0  0  0  0  0  0  0
   -4.1774    2.8448    0.0000 C   0  0  0  0  0  0  0  0  0  0  0  0
   -4.8216    1.4902    0.0000 C   0  0  0  0  0  0  0  0  0  0  0  0
   -2.6900    2.6506    0.0000 C   0  0  0  0  0  0  0  0  0  0  0  0
   -3.7324    0.4589    0.0000 C   0  0  0  0  0  0  0  0  0  0  0  0
   -2.4759   -4.0223    0.0000 C   0  0  0  0  0  0  0  0  0  0  0  0
   -3.8289    4.3037    0.0000 C   0  0  0  0  0  0  0  0  0  0  0  0
   -6.2962    1.2152    0.0000 C   0  0  0  0  0  0  0  0  0  0  0  0
   -1.1213   -4.6666    0.0000 C   0  0  0  0  0  0  0  0  0  0  0  0
   -5.5919    3.3439    0.0000 C   0  0  0  0  0  0  0  0  0  0  0  0
   -1.1804    3.8844    0.0000 C   0  0  0  0  0  0  0  0  0  0  0  0
   -2.7471   -2.3136    0.0000 C   0  0  0  0  0  0  0  0  0  0  0  0
   -3.5155   -1.0254    0.0000 C   0  0  0  0  0  0  0  0  0  0  0  0
   -0.0900   -3.5774    0.0000 C   0  0  0  0  0  0  0  0  0  0  0  0
   -3.9349   -3.6738    0.0000 C   0  0  0  0  0  0  0  0  0  0  0  0
    0.3038    4.1013    0.0000 C   0  0  0  0  0  0  0  0  0  0  0  0
   -0.8463   -6.1412    0.0000 C   0  0  0  0  0  0  0  0  0  0  0  0
   -2.9750   -5.4369    0.0000 C   0  0  0  0  0  0  0  0  0  0  0  0
   -7.2717    2.3547    0.0000 C   0  0  0  0  0  0  0  0  0  0  0  0
   -4.9181    5.3350    0.0000 C   0  0  0  0  0  0  0  0  0  0  0  0
    1.8005    4.9692    0.0000 C   0  0  0  0  0  0  0  0  0  0  0  0
    1.3942   -3.3605    0.0000 C   0  0  0  0  0  0  0  0  0  0  0  0
    2.9609    2.8375    0.0000 C   0  0  0  0  0  0  0  0  0  0  0  0
   -1.9858   -7.1166    0.0000 C   0  0  0  0  0  0  0  0  0  0  0  0
    3.1551    4.3249    0.0000 C   0  0  0  0  0  0  0  0  0  0  0  0
   -4.9662   -4.7630    0.0000 C   0  0  0  0  0  0  0  0  0  0  0  0
    2.6825   -2.5921    0.0000 C   0  0  0  0  0  0  0  0  0  0  0  0
    3.7293    1.5493    0.0000 C   0  0  0  0  0  0  0  0  0  0  0  0
   -8.7462    2.0797    0.0000 C   0  0  0  0  0  0  0  0  0  0  0  0
    1.5255    6.4438    0.0000 C   0  0  0  0  0  0  0  0  0  0  0  0
    3.9462    0.0651    0.0000 C   0  0  0  0  0  0  0  0  0  0  0  0
    4.4725    5.0421    0.0000 C   0  0  0  0  0  0  0  0  0  0  0  0
    4.3912   -2.3209    0.0000 C   0  0  0  0  0  0  0  0  0  0  0  0
    5.0354   -0.9663    0.0000 C   0  0  0  0  0  0  0  0  0  0  0  0
   -1.7108   -8.5912    0.0000 C   0  0  0  0  0  0  0  0  0  0  0  0
    6.5100   -0.6912    0.0000 C   0  0  0  0  0  0  0  0  0  0  0  0
    5.7523    4.2598    0.0000 C   0  0  0  0  0  0  0  0  0  0  0  0
    5.1084   -3.6383    0.0000 C   0  0  0  0  0  0  0  0  0  0  0  0
    0.1109    6.9429    0.0000 C   0  0  0  0  0  0  0  0  0  0  0  0
    7.4855   -1.8308    0.0000 C   0  0  0  0  0  0  0  0  0  0  0  0
    7.0698    4.9770    0.0000 C   0  0  0  0  0  0  0  0  0  0  0  0
    4.3261   -4.9181    0.0000 C   0  0  0  0  0  0  0  0  0  0  0  0
    8.9600   -1.5558    0.0000 C   0  0  0  0  0  0  0  0  0  0  0  0
  1 39  1  0
  2 39  2  0
  3 45  1  0
  4 48  1  0
  5 45  2  0
  6 48  2  0
  7 54  1  0
  8 54  2  0
  9 58  1  0
 10 58  2  0
 11 61  1  0
 12 60  1  0
 13 61  2  0
 14 60  2  0
 15 62  1  0
 16 62  2  0
 17 23  1  0
 17 24  2  0
 18 31  1  0
 18 33  1  0
 19 35  1  0
 19 42  1  0
 20 46  1  0
 20 50  1  0
 21 22  1  0
 21 23  1  0
 21 26  1  0
 21 29  1  0
 22 24  1  0
 22 27  1  0
 23 30  1  0
 24 32  1  0
 25 28  1  0
 25 31  1  0
 25 34  1  0
 25 37  1  0
 26 39  1  0
 27 38  1  0
 28 33  1  0
 28 36  1  0
 30 35  1  0
 31 32  2  3
 33 41  2  3
 34 45  1  0
 35 40  2  0
 36 43  1  0
 38 48  1  0
 40 44  1  0
 40 49  1  0
 41 46  1  0
 42 44  2  0
 42 47  1  0
 43 54  1  0
 44 51  1  0
 46 52  2  0
 47 50  1  0
 49 58  1  0
 50 53  2  0
 51 56  1  0
 52 53  1  0
 52 57  1  0
 53 55  1  0
 55 59  1  0
 56 60  1  0
 57 61  1  0
 59 62  1  0
M  END
>  <PUBCHEM_COMPOUND_CID>  (1) 
667

>  <PUBCHEM_COMPOUND_CANONICALIZED>  (1) 
1

>  <PUBCHEM_CACTVS_COMPLEXITY>  (1) 
1910

>  <PUBCHEM_CACTVS_HBOND_ACCEPTOR>  (1) 
18

>  <PUBCHEM_CACTVS_HBOND_DONOR>  (1) 
11

>  <PUBCHEM_CACTVS_ROTATABLE_BOND>  (1) 
20

>  <PUBCHEM_CACTVS_SUBSKEYS>  (1) 
AAADcfB/vgAAAAAAAAAAAAAAAAAAAWLFiAAAAAAAAAAAAAAB4AAAHgAQCAAADyjBngQCiJLJkgCoAyTyTACCgCAhAiAAmSEwRJgIIHLA1ZGEYAhk0AHIyAe82fOfgAAAAAAAAAAAAAAAAAAAAAAAAAAAAA==

>  <PUBCHEM_IUPAC_OPENEYE_NAME>  (1) 
3-[7,13,17-tris(2-carboxyethyl)-3,8,12,18-tetrakis(carboxymethyl)-3,8-dimethyl-2,7,9,10,15,21,23,24-octahydroporphyrin-2-yl]propanoic acid

>  <PUBCHEM_IUPAC_CAS_NAME>  (1) 
3-[7,13,17-tris(2-carboxyethyl)-3,8,12,18-tetrakis(carboxymethyl)-3,8-dimethyl-2,7,9,10,15,21,23,24-octahydroporphyrin-2-yl]propanoic acid

>  <PUBCHEM_IUPAC_NAME_MARKUP>  (1) 
3-[7,13,17-tris(2-carboxyethyl)-3,8,12,18-tetrakis(carboxymethyl)-3,8-dimethyl-2,7,9,10,15,21,23,24-octahydroporphyrin-2-yl]propanoic acid

>  <PUBCHEM_IUPAC_NAME>  (1) 
3-[7,13,17-tris(2-carboxyethyl)-3,8,12,18-tetrakis(carboxymethyl)-3,8-dimethyl-2,7,9,10,15,21,23,24-octahydroporphyrin-2-yl]propanoic acid

>  <PUBCHEM_IUPAC_SYSTEMATIC_NAME>  (1) 
3-[3,8,12,18-tetrakis(2-hydroxy-2-oxoethyl)-7,13,17-tris(3-hydroxy-3-oxopropyl)-3,8-dimethyl-2,7,9,10,15,21,23,24-octahydroporphyrin-2-yl]propanoic acid

>  <PUBCHEM_IUPAC_TRADITIONAL_NAME>  (1) 
3-[7,13,17-tris(2-carboxyethyl)-3,8,12,18-tetrakis(carboxymethyl)-3,8-dimethyl-2,7,9,10,15,21,23,24-octahydroporphin-2-yl]propionic acid

>  <PUBCHEM_IUPAC_INCHI>  (1) 
InChI=1S/C42H50N4O16/c1-41(17-39(59)60)23(5-9-35(51)52)29-14-27-21(11-37(55)56)19(3-7-33(47)48)25(43-27)13-26-20(4-8-34(49)50)22(12-38(57)58)28(44-26)15-31-42(2,18-40(61)62)24(6-10-36(53)54)30(46-31)16-32(41)45-29/h14,16,23-24,31,43-45H,3-13,15,17-18H2,1-2H3,(H,47,48)(H,49,50)(H,51,52)(H,53,54)(H,55,56)(H,57,58)(H,59,60)(H,61,62)

>  <PUBCHEM_IUPAC_INCHIKEY>  (1) 
OZRBELAXOMTWMP-UHFFFAOYSA-N

>  <PUBCHEM_XLOGP3_AA>  (1) 
-0.1

>  <PUBCHEM_EXACT_MASS>  (1) 
866.322182

>  <PUBCHEM_MOLECULAR_FORMULA>  (1) 
C42H50N4O16

>  <PUBCHEM_MOLECULAR_WEIGHT>  (1) 
866.9

>  <PUBCHEM_OPENEYE_CAN_SMILES>  (1) 
CC1(C2CC3=C(C(=C(N3)CC4=C(C(=C(N4)C=C5C(C(C(=CC(=N2)C1CCC(=O)O)N5)(C)CC(=O)O)CCC(=O)O)CC(=O)O)CCC(=O)O)CCC(=O)O)CC(=O)O)CC(=O)O

>  <PUBCHEM_OPENEYE_ISO_SMILES>  (1) 
CC1(C2CC3=C(C(=C(N3)CC4=C(C(=C(N4)C=C5C(C(C(=CC(=N2)C1CCC(=O)O)N5)(C)CC(=O)O)CCC(=O)O)CC(=O)O)CCC(=O)O)CCC(=O)O)CC(=O)O)CC(=O)O

>  <PUBCHEM_CACTVS_TPSA>  (1) 
354

>  <PUBCHEM_MONOISOTOPIC_WEIGHT>  (1) 
866.322182

>  <PUBCHEM_TOTAL_CHARGE>  (1) 
0

>  <PUBCHEM_HEAVY_ATOM_COUNT>  (1) 
62

>  <PUBCHEM_ATOM_DEF_STEREO_COUNT>  (1) 
0

>  <PUBCHEM_ATOM_UDEF_STEREO_COUNT>  (1) 
5

>  <PUBCHEM_BOND_DEF_STEREO_COUNT>  (1) 
0

>  <PUBCHEM_BOND_UDEF_STEREO_COUNT>  (1) 
2

>  <PUBCHEM_ISOTOPIC_ATOM_COUNT>  (1) 
0

>  <PUBCHEM_COMPONENT_COUNT>  (1) 
1

>  <PUBCHEM_CACTVS_TAUTO_COUNT>  (1) 
-1

>  <PUBCHEM_COORDINATE_TYPE>  (1) 
1
5
255

>  <PUBCHEM_BONDANNOTATIONS>  (1) 
19  35  8
19  42  8
20  46  8
20  50  8
21  29  3
22  27  3
23  30  3
25  37  3
28  36  3
31  32  1
33  41  1
35  40  8
40  44  8
42  44  8
46  52  8
50  53  8
52  53  8

$$$$
