672
     RDKit          2D

 23 24  0  0  1  0  0  0  0  0999 V2000
   -2.2528    1.4345    0.0000 O   0  0  0  0  0  0  0  0  0  0  0  0
   -3.1510   -2.4311    0.0000 O   0  0  0  0  0  0  0  0  0  0  0  0
   -4.8365    1.1618    0.0000 O   0  0  0  0  0  0  0  0  0  0  0  0
   -7.2628   -0.6026    0.0000 O   0  0  0  0  0  0  0  0  0  0  0  0
    5.6558    0.7609    0.0000 O   0  0  0  0  0  0  0  0  0  0  0  0
    3.5445   -3.9869    0.0000 O   0  0  0  0  0  0  0  0  0  0  0  0
    0.4884    0.2155    0.0000 N   0  0  0  0  0  0  0  0  0  0  0  0
    2.9147    1.9799    0.0000 N   0  0  0  0  0  0  0  0  0  0  0  0
    2.0164   -1.8857    0.0000 N   0  0  0  0  0  0  0  0  0  0  0  0
    4.6002   -1.6130    0.0000 N   0  0  0  0  0  0  0  0  0  0  0  0
   -2.0953   -0.0572    0.0000 C   0  0  0  0  0  0  0  0  0  0  0  0
   -3.3085   -0.9394    0.0000 C   0  0  0  0  0  0  0  0  0  0  0  0
   -0.7247   -0.6667    0.0000 C   0  0  0  0  0  0  0  0  0  0  0  0
   -4.6791   -0.3299    0.0000 C   0  0  0  0  0  0  0  0  0  0  0  0
    0.3310    1.7072    0.0000 C   0  0  0  0  0  0  0  0  0  0  0  0
    1.8590   -0.3940    0.0000 C   0  0  0  0  0  0  0  0  0  0  0  0
   -5.8922   -1.2121    0.0000 C   0  0  0  0  0  0  0  0  0  0  0  0
    1.5441    2.5894    0.0000 C   0  0  0  0  0  0  0  0  0  0  0  0
    3.0721    0.4882    0.0000 C   0  0  0  0  0  0  0  0  0  0  0  0
   -1.0396    2.3167    0.0000 C   0  0  0  0  0  0  0  0  0  0  0  0
    1.3866    4.0811    0.0000 C   0  0  0  0  0  0  0  0  0  0  0  0
    4.4427   -0.1213    0.0000 C   0  0  0  0  0  0  0  0  0  0  0  0
    3.3870   -2.4952    0.0000 C   0  0  0  0  0  0  0  0  0  0  0  0
  1 11  1  0
  2 12  1  0
  3 14  1  0
  4 17  1  0
  5 22  2  0
  6 23  2  0
  7 13  1  0
  7 15  1  0
  7 16  1  0
  8 18  1  0
  8 19  2  0
  9 16  2  0
  9 23  1  0
 10 22  1  0
 10 23  1  0
 11 12  1  0
 11 13  1  0
 12 14  1  0
 14 17  1  0
 15 18  2  0
 15 20  1  0
 16 19  1  0
 18 21  1  0
 19 22  1  0
M  END
>  <PUBCHEM_COMPOUND_CID>  (1) 
672

>  <PUBCHEM_COMPOUND_CANONICALIZED>  (1) 
1

>  <PUBCHEM_CACTVS_COMPLEXITY>  (1) 
626

>  <PUBCHEM_CACTVS_HBOND_ACCEPTOR>  (1) 
7

>  <PUBCHEM_CACTVS_HBOND_DONOR>  (1) 
5

>  <PUBCHEM_CACTVS_ROTATABLE_BOND>  (1) 
5

>  <PUBCHEM_CACTVS_SUBSKEYS>  (1) 
AAADceBzuAAAAAAAAAAAAAAAAAAAAAAAAAAgQAAAAAAAAACAAAAAHgAQCAAACBzhgAYDAAPAAgCoAQdwdAAAAAEAAAABCAEoAACDEAoAyAAEQAAHBSKRAADwEAIAAAAAAAAAAAAAAAAAAAAAAAAAAAAAAA==

>  <PUBCHEM_IUPAC_OPENEYE_NAME>  (1) 
6,7-dimethyl-8-(2,3,4,5-tetrahydroxypentyl)pteridine-2,4-dione

>  <PUBCHEM_IUPAC_CAS_NAME>  (1) 
6,7-dimethyl-8-(2,3,4,5-tetrahydroxypentyl)pteridine-2,4-dione

>  <PUBCHEM_IUPAC_NAME_MARKUP>  (1) 
6,7-dimethyl-8-(2,3,4,5-tetrahydroxypentyl)pteridine-2,4-dione

>  <PUBCHEM_IUPAC_NAME>  (1) 
6,7-dimethyl-8-(2,3,4,5-tetrahydroxypentyl)pteridine-2,4-dione

>  <PUBCHEM_IUPAC_SYSTEMATIC_NAME>  (1) 
6,7-dimethyl-8-[2,3,4,5-tetrakis(oxidanyl)pentyl]pteridine-2,4-dione

>  <PUBCHEM_IUPAC_TRADITIONAL_NAME>  (1) 
6,7-dimethyl-8-(2,3,4,5-tetrahydroxypentyl)pteridine-2,4-quinone

>  <PUBCHEM_IUPAC_INCHI>  (1) 
InChI=1S/C13H18N4O6/c1-5-6(2)17(3-7(19)10(21)8(20)4-18)11-9(14-5)12(22)16-13(23)15-11/h7-8,10,18-21H,3-4H2,1-2H3,(H,16,22,23)

>  <PUBCHEM_IUPAC_INCHIKEY>  (1) 
SXDXRJZUAJBNFL-UHFFFAOYSA-N

>  <PUBCHEM_XLOGP3_AA>  (1) 
-2.7

>  <PUBCHEM_EXACT_MASS>  (1) 
326.122634

>  <PUBCHEM_MOLECULAR_FORMULA>  (1) 
C13H18N4O6

>  <PUBCHEM_MOLECULAR_WEIGHT>  (1) 
326.31

>  <PUBCHEM_OPENEYE_CAN_SMILES>  (1) 
CC1=C(N(C2=NC(=O)NC(=O)C2=N1)CC(C(C(CO)O)O)O)C

>  <PUBCHEM_OPENEYE_ISO_SMILES>  (1) 
CC1=C(N(C2=NC(=O)NC(=O)C2=N1)CC(C(C(CO)O)O)O)C

>  <PUBCHEM_CACTVS_TPSA>  (1) 
155

>  <PUBCHEM_MONOISOTOPIC_WEIGHT>  (1) 
326.122634

>  <PUBCHEM_TOTAL_CHARGE>  (1) 
0

>  <PUBCHEM_HEAVY_ATOM_COUNT>  (1) 
23

>  <PUBCHEM_ATOM_DEF_STEREO_COUNT>  (1) 
0

>  <PUBCHEM_ATOM_UDEF_STEREO_COUNT>  (1) 
3

>  <PUBCHEM_BOND_DEF_STEREO_COUNT>  (1) 
0

>  <PUBCHEM_BOND_UDEF_STEREO_COUNT>  (1) 
0

>  <PUBCHEM_ISOTOPIC_ATOM_COUNT>  (1) 
0

>  <PUBCHEM_COMPONENT_COUNT>  (1) 
1

>  <PUBCHEM_CACTVS_TAUTO_COUNT>  (1) 
-1

>  <PUBCHEM_COORDINATE_TYPE>  (1) 
1
5
255

>  <PUBCHEM_BONDANNOTATIONS>  (1) 
11  1  3
10  22  8
10  23  8
15  18  8
19  22  8
12  2  3
14  3  3
7  15  8
7  16  8
8  18  8
8  19  8
9  16  8
9  23  8

$$$$
