673
     RDKit          2D

  7  6  0  0  0  0  0  0  0  0999 V2000
    2.5981    0.8571    0.0000 O   0  0  0  0  0  0  0  0  0  0  0  0
    1.2990   -1.3929    0.0000 O   0  0  0  0  0  0  0  0  0  0  0  0
   -1.2990    0.1071    0.0000 N   0  0  0  0  0  0  0  0  0  0  0  0
    0.0000    0.8571    0.0000 C   0  0  0  0  0  0  0  0  0  0  0  0
   -2.5981    0.8571    0.0000 C   0  0  0  0  0  0  0  0  0  0  0  0
   -1.2990   -1.3929    0.0000 C   0  0  0  0  0  0  0  0  0  0  0  0
    1.2990    0.1071    0.0000 C   0  0  0  0  0  0  0  0  0  0  0  0
  1  7  1  0
  2  7  2  0
  3  4  1  0
  3  5  1  0
  3  6  1  0
  4  7  1  0
M  END
>  <PUBCHEM_COMPOUND_CID>  (1) 
673

>  <PUBCHEM_COMPOUND_CANONICALIZED>  (1) 
1

>  <PUBCHEM_CACTVS_COMPLEXITY>  (1) 
70.1

>  <PUBCHEM_CACTVS_HBOND_ACCEPTOR>  (1) 
3

>  <PUBCHEM_CACTVS_HBOND_DONOR>  (1) 
1

>  <PUBCHEM_CACTVS_ROTATABLE_BOND>  (1) 
2

>  <PUBCHEM_CACTVS_SUBSKEYS>  (1) 
AAADccBiMAAAAAAAAAAAAAAAAAAAAAAAAAAAAAAAAAAAAAAAAAAAHgAACAAAAADBgAQCCAMAAgAIAACQCAAAAAAAAAAAAACIAAACAAAAACAAAAAAAAAQAAAAAAAAAAAAAAAAAAAAAAAAAAAAAAAAAAAAAA==

>  <PUBCHEM_IUPAC_OPENEYE_NAME>  (1) 
2-(dimethylamino)acetic acid

>  <PUBCHEM_IUPAC_CAS_NAME>  (1) 
2-(dimethylamino)acetic acid

>  <PUBCHEM_IUPAC_NAME_MARKUP>  (1) 
2-(dimethylamino)acetic acid

>  <PUBCHEM_IUPAC_NAME>  (1) 
2-(dimethylamino)acetic acid

>  <PUBCHEM_IUPAC_SYSTEMATIC_NAME>  (1) 
2-(dimethylamino)ethanoic acid

>  <PUBCHEM_IUPAC_TRADITIONAL_NAME>  (1) 
2-(dimethylamino)acetic acid

>  <PUBCHEM_IUPAC_INCHI>  (1) 
InChI=1S/C4H9NO2/c1-5(2)3-4(6)7/h3H2,1-2H3,(H,6,7)

>  <PUBCHEM_IUPAC_INCHIKEY>  (1) 
FFDGPVCHZBVARC-UHFFFAOYSA-N

>  <PUBCHEM_XLOGP3>  (1) 
-2.9

>  <PUBCHEM_EXACT_MASS>  (1) 
103.063329

>  <PUBCHEM_MOLECULAR_FORMULA>  (1) 
C4H9NO2

>  <PUBCHEM_MOLECULAR_WEIGHT>  (1) 
103.12

>  <PUBCHEM_OPENEYE_CAN_SMILES>  (1) 
CN(C)CC(=O)O

>  <PUBCHEM_OPENEYE_ISO_SMILES>  (1) 
CN(C)CC(=O)O

>  <PUBCHEM_CACTVS_TPSA>  (1) 
40.5

>  <PUBCHEM_MONOISOTOPIC_WEIGHT>  (1) 
103.063329

>  <PUBCHEM_TOTAL_CHARGE>  (1) 
0

>  <PUBCHEM_HEAVY_ATOM_COUNT>  (1) 
7

>  <PUBCHEM_ATOM_DEF_STEREO_COUNT>  (1) 
0

>  <PUBCHEM_ATOM_UDEF_STEREO_COUNT>  (1) 
0

>  <PUBCHEM_BOND_DEF_STEREO_COUNT>  (1) 
0

>  <PUBCHEM_BOND_UDEF_STEREO_COUNT>  (1) 
0

>  <PUBCHEM_ISOTOPIC_ATOM_COUNT>  (1) 
0

>  <PUBCHEM_COMPONENT_COUNT>  (1) 
1

>  <PUBCHEM_CACTVS_TAUTO_COUNT>  (1) 
-1

>  <PUBCHEM_COORDINATE_TYPE>  (1) 
1
5
255

$$$$
