675
     RDKit          2D

 11 12  0  0  0  0  0  0  0  0999 V2000
   -2.3745   -1.2135    0.0000 N   0  0  0  0  0  0  0  0  0  0  0  0
   -2.3745    1.2135    0.0000 N   0  0  0  0  0  0  0  0  0  0  0  0
   -0.9479   -0.7500    0.0000 C   0  0  0  0  0  0  0  0  0  0  0  0
    1.6502   -0.7500    0.0000 C   0  0  0  0  0  0  0  0  0  0  0  0
    1.6502    0.7500    0.0000 C   0  0  0  0  0  0  0  0  0  0  0  0
   -0.9479    0.7500    0.0000 C   0  0  0  0  0  0  0  0  0  0  0  0
    0.3511   -1.5000    0.0000 C   0  0  0  0  0  0  0  0  0  0  0  0
    0.3511    1.5000    0.0000 C   0  0  0  0  0  0  0  0  0  0  0  0
    2.9492   -1.5000    0.0000 C   0  0  0  0  0  0  0  0  0  0  0  0
    2.9492    1.5000    0.0000 C   0  0  0  0  0  0  0  0  0  0  0  0
   -3.2562    0.0000    0.0000 C   0  0  0  0  0  0  0  0  0  0  0  0
  1  3  1  0
  1 11  1  0
  2  6  1  0
  2 11  2  0
  3  6  2  0
  3  7  1  0
  4  5  1  0
  4  7  2  0
  4  9  1  0
  5  8  2  0
  5 10  1  0
  6  8  1  0
M  END
>  <PUBCHEM_COMPOUND_CID>  (1) 
675

>  <PUBCHEM_COMPOUND_CANONICALIZED>  (1) 
1

>  <PUBCHEM_CACTVS_COMPLEXITY>  (1) 
147

>  <PUBCHEM_CACTVS_HBOND_ACCEPTOR>  (1) 
1

>  <PUBCHEM_CACTVS_HBOND_DONOR>  (1) 
1

>  <PUBCHEM_CACTVS_ROTATABLE_BOND>  (1) 
0

>  <PUBCHEM_CACTVS_SUBSKEYS>  (1) 
AAADccBzAAAAAAAAAAAAAAAAAAAAAWAAAAAwAAAAAAAAAFgB8AAAHAAQAAAADAiBHgQ30LbJkACgAyRjZACCgC2xEqAB2aA4dJiIaKLAmZGUIAhokAJIyCcQgIAOiAAAQAAQACAQAACAACAAQAAAAAAAAA==

>  <PUBCHEM_IUPAC_OPENEYE_NAME>  (1) 
5,6-dimethyl-1H-benzimidazole

>  <PUBCHEM_IUPAC_CAS_NAME>  (1) 
5,6-dimethyl-1H-benzimidazole

>  <PUBCHEM_IUPAC_NAME_MARKUP>  (1) 
5,6-dimethyl-1<I>H</I>-benzimidazole

>  <PUBCHEM_IUPAC_NAME>  (1) 
5,6-dimethyl-1H-benzimidazole

>  <PUBCHEM_IUPAC_SYSTEMATIC_NAME>  (1) 
5,6-dimethyl-1H-benzimidazole

>  <PUBCHEM_IUPAC_TRADITIONAL_NAME>  (1) 
5,6-dimethyl-1H-benzimidazole

>  <PUBCHEM_IUPAC_INCHI>  (1) 
InChI=1S/C9H10N2/c1-6-3-8-9(4-7(6)2)11-5-10-8/h3-5H,1-2H3,(H,10,11)

>  <PUBCHEM_IUPAC_INCHIKEY>  (1) 
LJUQGASMPRMWIW-UHFFFAOYSA-N

>  <PUBCHEM_XLOGP3>  (1) 
2.4

>  <PUBCHEM_EXACT_MASS>  (1) 
146.084398

>  <PUBCHEM_MOLECULAR_FORMULA>  (1) 
C9H10N2

>  <PUBCHEM_MOLECULAR_WEIGHT>  (1) 
146.19

>  <PUBCHEM_OPENEYE_CAN_SMILES>  (1) 
CC1=CC2=C(C=C1C)N=CN2

>  <PUBCHEM_OPENEYE_ISO_SMILES>  (1) 
CC1=CC2=C(C=C1C)N=CN2

>  <PUBCHEM_CACTVS_TPSA>  (1) 
28.7

>  <PUBCHEM_MONOISOTOPIC_WEIGHT>  (1) 
146.084398

>  <PUBCHEM_TOTAL_CHARGE>  (1) 
0

>  <PUBCHEM_HEAVY_ATOM_COUNT>  (1) 
11

>  <PUBCHEM_ATOM_DEF_STEREO_COUNT>  (1) 
0

>  <PUBCHEM_ATOM_UDEF_STEREO_COUNT>  (1) 
0

>  <PUBCHEM_BOND_DEF_STEREO_COUNT>  (1) 
0

>  <PUBCHEM_BOND_UDEF_STEREO_COUNT>  (1) 
0

>  <PUBCHEM_ISOTOPIC_ATOM_COUNT>  (1) 
0

>  <PUBCHEM_COMPONENT_COUNT>  (1) 
1

>  <PUBCHEM_CACTVS_TAUTO_COUNT>  (1) 
-1

>  <PUBCHEM_COORDINATE_TYPE>  (1) 
1
5
255

>  <PUBCHEM_BONDANNOTATIONS>  (1) 
1  11  8
1  3  8
2  11  8
2  6  8
3  6  8
3  7  8
4  5  8
4  7  8
5  8  8
6  8  8

$$$$
