677
     RDKit          2D

  9  8  0  0  1  0  0  0  0  0999 V2000
    2.4717   -0.8671    0.0000 O   0  0  0  0  0  0  0  0  0  0  0  0
   -0.1862    2.0800    0.0000 O   0  0  0  0  0  0  0  0  0  0  0  0
   -2.7536    0.5280    0.0000 O   0  0  0  0  0  0  0  0  0  0  0  0
   -1.4095   -1.6954    0.0000 O   0  0  0  0  0  0  0  0  0  0  0  0
    1.1578   -0.1434    0.0000 C   0  0  0  0  0  0  0  0  0  0  0  0
   -0.1560    0.5803    0.0000 C   0  0  0  0  0  0  0  0  0  0  0  0
    1.8815    1.1705    0.0000 C   0  0  0  0  0  0  0  0  0  0  0  0
    0.4341   -1.4573    0.0000 C   0  0  0  0  0  0  0  0  0  0  0  0
   -1.4397   -0.1957    0.0000 C   0  0  0  0  0  0  0  0  0  0  0  0
  1  5  1  0
  2  6  1  0
  3  9  1  0
  4  9  2  0
  5  6  1  0
  5  7  1  0
  5  8  1  0
  6  9  1  0
M  END
>  <PUBCHEM_COMPOUND_CID>  (1) 
677

>  <PUBCHEM_COMPOUND_CANONICALIZED>  (1) 
1

>  <PUBCHEM_CACTVS_COMPLEXITY>  (1) 
118

>  <PUBCHEM_CACTVS_HBOND_ACCEPTOR>  (1) 
4

>  <PUBCHEM_CACTVS_HBOND_DONOR>  (1) 
3

>  <PUBCHEM_CACTVS_ROTATABLE_BOND>  (1) 
2

>  <PUBCHEM_CACTVS_SUBSKEYS>  (1) 
AAADccBgOAAAAAAAAAAAAAAAAAAAAAAAAAAAAAAAAAAAAAAAAAAAGgAACAAADFSggAICCAAAAgAIAACQCAIAAAAAAAAAAAFAAAABEBQAAAAAQAAFIAABAAAAAAAIAAAAAAAAAAAAAAAAAAAAAAAAAAAAAA==

>  <PUBCHEM_IUPAC_OPENEYE_NAME>  (1) 
2,3-dihydroxy-3-methyl-butanoic acid

>  <PUBCHEM_IUPAC_CAS_NAME>  (1) 
2,3-dihydroxy-3-methylbutanoic acid

>  <PUBCHEM_IUPAC_NAME_MARKUP>  (1) 
2,3-dihydroxy-3-methylbutanoic acid

>  <PUBCHEM_IUPAC_NAME>  (1) 
2,3-dihydroxy-3-methylbutanoic acid

>  <PUBCHEM_IUPAC_SYSTEMATIC_NAME>  (1) 
3-methyl-2,3-bis(oxidanyl)butanoic acid

>  <PUBCHEM_IUPAC_TRADITIONAL_NAME>  (1) 
2,3-dihydroxy-3-methyl-butyric acid

>  <PUBCHEM_IUPAC_INCHI>  (1) 
InChI=1S/C5H10O4/c1-5(2,9)3(6)4(7)8/h3,6,9H,1-2H3,(H,7,8)

>  <PUBCHEM_IUPAC_INCHIKEY>  (1) 
JTEYKUFKXGDTEU-UHFFFAOYSA-N

>  <PUBCHEM_XLOGP3_AA>  (1) 
-0.9

>  <PUBCHEM_EXACT_MASS>  (1) 
134.057909

>  <PUBCHEM_MOLECULAR_FORMULA>  (1) 
C5H10O4

>  <PUBCHEM_MOLECULAR_WEIGHT>  (1) 
134.13

>  <PUBCHEM_OPENEYE_CAN_SMILES>  (1) 
CC(C)(C(C(=O)O)O)O

>  <PUBCHEM_OPENEYE_ISO_SMILES>  (1) 
CC(C)(C(C(=O)O)O)O

>  <PUBCHEM_CACTVS_TPSA>  (1) 
77.8

>  <PUBCHEM_MONOISOTOPIC_WEIGHT>  (1) 
134.057909

>  <PUBCHEM_TOTAL_CHARGE>  (1) 
0

>  <PUBCHEM_HEAVY_ATOM_COUNT>  (1) 
9

>  <PUBCHEM_ATOM_DEF_STEREO_COUNT>  (1) 
0

>  <PUBCHEM_ATOM_UDEF_STEREO_COUNT>  (1) 
1

>  <PUBCHEM_BOND_DEF_STEREO_COUNT>  (1) 
0

>  <PUBCHEM_BOND_UDEF_STEREO_COUNT>  (1) 
0

>  <PUBCHEM_ISOTOPIC_ATOM_COUNT>  (1) 
0

>  <PUBCHEM_COMPONENT_COUNT>  (1) 
1

>  <PUBCHEM_CACTVS_TAUTO_COUNT>  (1) 
-1

>  <PUBCHEM_COORDINATE_TYPE>  (1) 
1
5
255

>  <PUBCHEM_BONDANNOTATIONS>  (1) 
6  2  3

$$$$
