681
     RDKit          2D

 11 11  0  0  0  0  0  0  0  0999 V2000
    1.9917    2.3048    0.0000 O   0  0  0  0  0  0  0  0  0  0  0  0
    3.7087   -0.1553    0.0000 O   0  0  0  0  0  0  0  0  0  0  0  0
   -4.6222    0.4324    0.0000 N   0  0  0  0  0  0  0  0  0  0  0  0
   -2.2692   -0.6692    0.0000 C   0  0  0  0  0  0  0  0  0  0  0  0
   -0.7747   -0.5407    0.0000 C   0  0  0  0  0  0  0  0  0  0  0  0
   -3.1277    0.5608    0.0000 C   0  0  0  0  0  0  0  0  0  0  0  0
   -0.1387    0.8178    0.0000 C   0  0  0  0  0  0  0  0  0  0  0  0
    0.0838   -1.7707    0.0000 C   0  0  0  0  0  0  0  0  0  0  0  0
    1.3558    0.9463    0.0000 C   0  0  0  0  0  0  0  0  0  0  0  0
    1.5783   -1.6423    0.0000 C   0  0  0  0  0  0  0  0  0  0  0  0
    2.2143   -0.2838    0.0000 C   0  0  0  0  0  0  0  0  0  0  0  0
  1  9  1  0
  2 11  1  0
  3  6  1  0
  4  5  1  0
  4  6  1  0
  5  7  2  0
  5  8  1  0
  7  9  1  0
  8 10  2  0
  9 11  2  0
 10 11  1  0
M  END
>  <PUBCHEM_COMPOUND_CID>  (1) 
681

>  <PUBCHEM_COMPOUND_CANONICALIZED>  (1) 
1

>  <PUBCHEM_CACTVS_COMPLEXITY>  (1) 
119

>  <PUBCHEM_CACTVS_HBOND_ACCEPTOR>  (1) 
3

>  <PUBCHEM_CACTVS_HBOND_DONOR>  (1) 
3

>  <PUBCHEM_CACTVS_ROTATABLE_BOND>  (1) 
2

>  <PUBCHEM_CACTVS_SUBSKEYS>  (1) 
AAADccByMAAAAAAAAAAAAAAAAAAAAAAAAAAwAAAAAAAAAAABAAAAHgAQCAAADATBmAQwBoBAAgCAAiBCAAACAAAgIAAIiIAGiIgJJiKCkROAcAEk0BEJmAeQ0LAOIAABAAAAQABAAAIAAACAAAAAAAAAAA==

>  <PUBCHEM_IUPAC_OPENEYE_NAME>  (1) 
4-(2-aminoethyl)benzene-1,2-diol

>  <PUBCHEM_IUPAC_CAS_NAME>  (1) 
4-(2-aminoethyl)benzene-1,2-diol

>  <PUBCHEM_IUPAC_NAME_MARKUP>  (1) 
4-(2-aminoethyl)benzene-1,2-diol

>  <PUBCHEM_IUPAC_NAME>  (1) 
4-(2-aminoethyl)benzene-1,2-diol

>  <PUBCHEM_IUPAC_SYSTEMATIC_NAME>  (1) 
4-(2-azanylethyl)benzene-1,2-diol

>  <PUBCHEM_IUPAC_TRADITIONAL_NAME>  (1) 
4-(2-aminoethyl)pyrocatechol

>  <PUBCHEM_IUPAC_INCHI>  (1) 
InChI=1S/C8H11NO2/c9-4-3-6-1-2-7(10)8(11)5-6/h1-2,5,10-11H,3-4,9H2

>  <PUBCHEM_IUPAC_INCHIKEY>  (1) 
VYFYYTLLBUKUHU-UHFFFAOYSA-N

>  <PUBCHEM_XLOGP3>  (1) 
-1

>  <PUBCHEM_EXACT_MASS>  (1) 
153.078979

>  <PUBCHEM_MOLECULAR_FORMULA>  (1) 
C8H11NO2

>  <PUBCHEM_MOLECULAR_WEIGHT>  (1) 
153.18

>  <PUBCHEM_OPENEYE_CAN_SMILES>  (1) 
C1=CC(=C(C=C1CCN)O)O

>  <PUBCHEM_OPENEYE_ISO_SMILES>  (1) 
C1=CC(=C(C=C1CCN)O)O

>  <PUBCHEM_CACTVS_TPSA>  (1) 
66.5

>  <PUBCHEM_MONOISOTOPIC_WEIGHT>  (1) 
153.078979

>  <PUBCHEM_TOTAL_CHARGE>  (1) 
0

>  <PUBCHEM_HEAVY_ATOM_COUNT>  (1) 
11

>  <PUBCHEM_ATOM_DEF_STEREO_COUNT>  (1) 
0

>  <PUBCHEM_ATOM_UDEF_STEREO_COUNT>  (1) 
0

>  <PUBCHEM_BOND_DEF_STEREO_COUNT>  (1) 
0

>  <PUBCHEM_BOND_UDEF_STEREO_COUNT>  (1) 
0

>  <PUBCHEM_ISOTOPIC_ATOM_COUNT>  (1) 
0

>  <PUBCHEM_COMPONENT_COUNT>  (1) 
1

>  <PUBCHEM_CACTVS_TAUTO_COUNT>  (1) 
-1

>  <PUBCHEM_COORDINATE_TYPE>  (1) 
1
5
255

>  <PUBCHEM_BONDANNOTATIONS>  (1) 
10  11  8
5  7  8
5  8  8
7  9  8
8  10  8
9  11  8

$$$$
