686
     RDKit          2D

 35 37  0  0  1  0  0  0  0  0999 V2000
    3.8860   -2.6813    0.0000 P   0  0  0  0  0  0  0  0  0  0  0  0
    1.2887   -2.7438    0.0000 P   0  0  0  0  0  0  0  0  0  0  0  0
   -2.7361   -0.4501    0.0000 O   0  0  0  0  0  0  0  0  0  0  0  0
    3.8138    0.3179    0.0000 O   0  0  0  0  0  0  0  0  0  0  0  0
   -0.4833    2.7106    0.0000 O   0  0  0  0  0  0  0  0  0  0  0  0
    5.1666   -1.9002    0.0000 O   0  0  0  0  0  0  0  0  0  0  0  0
    7.6556    2.6610    0.0000 O   0  0  0  0  0  0  0  0  0  0  0  0
    5.0222    4.0980    0.0000 O   0  0  0  0  0  0  0  0  0  0  0  0
    7.7278   -0.3381    0.0000 O   0  0  0  0  0  0  0  0  0  0  0  0
   -0.0281   -2.0253    0.0000 O   0  0  0  0  0  0  0  0  0  0  0  0
    2.6054   -3.4623    0.0000 O   0  0  0  0  0  0  0  0  0  0  0  0
    4.6670   -3.9619    0.0000 O   0  0  0  0  0  0  0  0  0  0  0  0
   -5.5876    3.0240    0.0000 O   0  0  0  0  0  0  0  0  0  0  0  0
    2.0072   -1.4271    0.0000 O   0  0  0  0  0  0  0  0  0  0  0  0
    3.1049   -1.4007    0.0000 O   0  0  0  0  0  0  0  0  0  0  0  0
    0.5701   -4.0605    0.0000 O   0  0  0  0  0  0  0  0  0  0  0  0
   -9.7166   -0.1305    0.0000 O   0  0  0  0  0  0  0  0  0  0  0  0
   -5.2539    0.4475    0.0000 N   0  0  0  0  0  0  0  0  0  0  0  0
   -7.6521    1.4468    0.0000 N   0  0  0  0  0  0  0  0  0  0  0  0
   -1.5735    1.6804    0.0000 C   0  0  0  0  0  0  0  0  0  0  0  0
   -1.3809    0.1928    0.0000 C   0  0  0  0  0  0  0  0  0  0  0  0
   -3.0478    1.9568    0.0000 C   0  0  0  0  0  0  0  0  0  0  0  0
   -3.7663    0.6401    0.0000 C   0  0  0  0  0  0  0  0  0  0  0  0
    6.3750    1.8799    0.0000 C   0  0  0  0  0  0  0  0  0  0  0  0
    5.0583    2.5985    0.0000 C   0  0  0  0  0  0  0  0  0  0  0  0
    6.4111    0.3804    0.0000 C   0  0  0  0  0  0  0  0  0  0  0  0
    3.7777    1.8174    0.0000 C   0  0  0  0  0  0  0  0  0  0  0  0
    5.1305   -0.4007    0.0000 C   0  0  0  0  0  0  0  0  0  0  0  0
   -0.0642   -0.5257    0.0000 C   0  0  0  0  0  0  0  0  0  0  0  0
    2.4610    2.5359    0.0000 C   0  0  0  0  0  0  0  0  0  0  0  0
   -5.8309   -0.9371    0.0000 C   0  0  0  0  0  0  0  0  0  0  0  0
   -6.1645    1.6394    0.0000 C   0  0  0  0  0  0  0  0  0  0  0  0
   -7.3184   -1.1298    0.0000 C   0  0  0  0  0  0  0  0  0  0  0  0
   -8.2291    0.0622    0.0000 C   0  0  0  0  0  0  0  0  0  0  0  0
   -7.8954   -2.5144    0.0000 C   0  0  0  0  0  0  0  0  0  0  0  0
  1  6  1  0
  1 11  1  0
  1 12  1  0
  1 15  2  0
  2 10  1  0
  2 11  1  0
  2 14  1  0
  2 16  2  0
  3 21  1  0
  3 23  1  0
  4 27  1  0
  4 28  1  0
  5 20  1  0
  6 28  1  0
  7 24  1  0
  8 25  1  0
  9 26  1  0
 10 29  1  0
 13 32  2  0
 17 34  2  0
 18 23  1  0
 18 31  1  0
 18 32  1  0
 19 32  1  0
 19 34  1  0
 20 21  1  0
 20 22  1  0
 21 29  1  0
 22 23  1  0
 24 25  1  0
 24 26  1  0
 25 27  1  0
 26 28  1  0
 27 30  1  0
 31 33  2  0
 33 34  1  0
 33 35  1  0
M  END
>  <PUBCHEM_COMPOUND_CID>  (1) 
686

>  <PUBCHEM_COMPOUND_CANONICALIZED>  (1) 
1

>  <PUBCHEM_CACTVS_COMPLEXITY>  (1) 
961

>  <PUBCHEM_CACTVS_HBOND_ACCEPTOR>  (1) 
15

>  <PUBCHEM_CACTVS_HBOND_DONOR>  (1) 
7

>  <PUBCHEM_CACTVS_ROTATABLE_BOND>  (1) 
8

>  <PUBCHEM_CACTVS_SUBSKEYS>  (1) 
AAADceB7PAMAAAAAAAAAAAAAAAAAASAAAAAkQAAAAAAAAAAAAAAAHgAQCCAADBTxgAcDCAPABxCIQgFWUICAAAAAAAAAAAEIAECREAIAgQAOQAAPByIHAMHwcAYAAAAAAAAAAAAAAAAAAAAAAAAAAAAAAA==

>  <PUBCHEM_IUPAC_OPENEYE_NAME>  (1) 
[hydroxy-[[3-hydroxy-5-(5-methyl-2,4-dioxo-pyrimidin-1-yl)tetrahydrofuran-2-yl]methoxy]phosphoryl] (3,4,5-trihydroxy-6-methyl-tetrahydropyran-2-yl) hydrogen phosphate

>  <PUBCHEM_IUPAC_CAS_NAME>  (1) 
[hydroxy-[[3-hydroxy-5-(5-methyl-2,4-dioxo-1-pyrimidinyl)-2-oxolanyl]methoxy]phosphoryl] (3,4,5-trihydroxy-6-methyl-2-oxanyl) hydrogen phosphate

>  <PUBCHEM_IUPAC_NAME_MARKUP>  (1) 
[hydroxy-[[3-hydroxy-5-(5-methyl-2,4-dioxopyrimidin-1-yl)oxolan-2-yl]methoxy]phosphoryl] (3,4,5-trihydroxy-6-methyloxan-2-yl) hydrogen phosphate

>  <PUBCHEM_IUPAC_NAME>  (1) 
[hydroxy-[[3-hydroxy-5-(5-methyl-2,4-dioxopyrimidin-1-yl)oxolan-2-yl]methoxy]phosphoryl] (3,4,5-trihydroxy-6-methyloxan-2-yl) hydrogen phosphate

>  <PUBCHEM_IUPAC_SYSTEMATIC_NAME>  (1) 
[[5-[5-methyl-2,4-bis(oxidanylidene)pyrimidin-1-yl]-3-oxidanyl-oxolan-2-yl]methoxy-oxidanyl-phosphoryl] [6-methyl-3,4,5-tris(oxidanyl)oxan-2-yl] hydrogen phosphate

>  <PUBCHEM_IUPAC_TRADITIONAL_NAME>  (1) 
[[5-(2,4-diketo-5-methyl-pyrimidin-1-yl)-3-hydroxy-tetrahydrofuran-2-yl]methoxy-hydroxy-phosphoryl] (3,4,5-trihydroxy-6-methyl-tetrahydropyran-2-yl) hydrogen phosphate

>  <PUBCHEM_IUPAC_INCHI>  (1) 
InChI=1S/C16H26N2O15P2/c1-6-4-18(16(24)17-14(6)23)10-3-8(19)9(31-10)5-29-34(25,26)33-35(27,28)32-15-13(22)12(21)11(20)7(2)30-15/h4,7-13,15,19-22H,3,5H2,1-2H3,(H,25,26)(H,27,28)(H,17,23,24)

>  <PUBCHEM_IUPAC_INCHIKEY>  (1) 
ZOSQFDVXNQFKBY-UHFFFAOYSA-N

>  <PUBCHEM_XLOGP3_AA>  (1) 
-4.8

>  <PUBCHEM_EXACT_MASS>  (1) 
548.080842

>  <PUBCHEM_MOLECULAR_FORMULA>  (1) 
C16H26N2O15P2

>  <PUBCHEM_MOLECULAR_WEIGHT>  (1) 
548.33

>  <PUBCHEM_OPENEYE_CAN_SMILES>  (1) 
CC1C(C(C(C(O1)OP(=O)(O)OP(=O)(O)OCC2C(CC(O2)N3C=C(C(=O)NC3=O)C)O)O)O)O

>  <PUBCHEM_OPENEYE_ISO_SMILES>  (1) 
CC1C(C(C(C(O1)OP(=O)(O)OP(=O)(O)OCC2C(CC(O2)N3C=C(C(=O)NC3=O)C)O)O)O)O

>  <PUBCHEM_CACTVS_TPSA>  (1) 
251

>  <PUBCHEM_MONOISOTOPIC_WEIGHT>  (1) 
548.080842

>  <PUBCHEM_TOTAL_CHARGE>  (1) 
0

>  <PUBCHEM_HEAVY_ATOM_COUNT>  (1) 
35

>  <PUBCHEM_ATOM_DEF_STEREO_COUNT>  (1) 
0

>  <PUBCHEM_ATOM_UDEF_STEREO_COUNT>  (1) 
8

>  <PUBCHEM_BOND_DEF_STEREO_COUNT>  (1) 
0

>  <PUBCHEM_BOND_UDEF_STEREO_COUNT>  (1) 
0

>  <PUBCHEM_ISOTOPIC_ATOM_COUNT>  (1) 
0

>  <PUBCHEM_COMPONENT_COUNT>  (1) 
1

>  <PUBCHEM_CACTVS_TAUTO_COUNT>  (1) 
-1

>  <PUBCHEM_COORDINATE_TYPE>  (1) 
1
5
255

>  <PUBCHEM_BONDANNOTATIONS>  (1) 
23  18  3
18  31  8
18  32  8
19  32  8
19  34  8
21  29  3
27  30  3
31  33  8
33  34  8
20  5  3
28  6  3
24  7  3
25  8  3
26  9  3

$$$$
