688
     RDKit          2D

 20 21  0  0  1  0  0  0  0  0999 V2000
   -4.9790    1.1546    0.0000 P   0  0  0  0  0  0  0  0  0  0  0  0
   -0.4528    0.1679    0.0000 O   0  0  0  0  0  0  0  0  0  0  0  0
   -1.6586   -3.5215    0.0000 O   0  0  0  0  0  0  0  0  0  0  0  0
   -3.5078    0.8622    0.0000 O   0  0  0  0  0  0  0  0  0  0  0  0
    3.3063   -2.2958    0.0000 O   0  0  0  0  0  0  0  0  0  0  0  0
   -5.2714   -0.3167    0.0000 O   0  0  0  0  0  0  0  0  0  0  0  0
   -6.4502    1.4469    0.0000 O   0  0  0  0  0  0  0  0  0  0  0  0
   -4.6866    2.6258    0.0000 O   0  0  0  0  0  0  0  0  0  0  0  0
    6.3044    1.9482    0.0000 O   0  0  0  0  0  0  0  0  0  0  0  0
    2.2181    0.0635    0.0000 N   0  0  0  0  0  0  0  0  0  0  0  0
    4.8054   -0.1738    0.0000 N   0  0  0  0  0  0  0  0  0  0  0  0
   -0.9259   -2.2126    0.0000 C   0  0  0  0  0  0  0  0  0  0  0  0
   -1.5541   -0.8505    0.0000 C   0  0  0  0  0  0  0  0  0  0  0  0
    0.5637   -2.0360    0.0000 C   0  0  0  0  0  0  0  0  0  0  0  0
    0.8560   -0.5648    0.0000 C   0  0  0  0  0  0  0  0  0  0  0  0
   -3.0254   -0.5581    0.0000 C   0  0  0  0  0  0  0  0  0  0  0  0
    3.4433   -0.8020    0.0000 C   0  0  0  0  0  0  0  0  0  0  0  0
    2.3551    1.5572    0.0000 C   0  0  0  0  0  0  0  0  0  0  0  0
    3.7172    2.1854    0.0000 C   0  0  0  0  0  0  0  0  0  0  0  0
    4.9423    1.3199    0.0000 C   0  0  0  0  0  0  0  0  0  0  0  0
  1  4  1  0
  1  6  1  0
  1  7  1  0
  1  8  2  0
  2 13  1  0
  2 15  1  0
  3 12  1  0
  4 16  1  0
  5 17  2  0
  9 20  2  0
 10 15  1  0
 10 17  1  0
 10 18  1  0
 11 17  1  0
 11 20  1  0
 12 13  1  0
 12 14  1  0
 13 16  1  0
 14 15  1  0
 18 19  2  0
 19 20  1  0
M  END
>  <PUBCHEM_COMPOUND_CID>  (1) 
688

>  <PUBCHEM_COMPOUND_CANONICALIZED>  (1) 
1

>  <PUBCHEM_CACTVS_COMPLEXITY>  (1) 
488

>  <PUBCHEM_CACTVS_HBOND_ACCEPTOR>  (1) 
8

>  <PUBCHEM_CACTVS_HBOND_DONOR>  (1) 
4

>  <PUBCHEM_CACTVS_ROTATABLE_BOND>  (1) 
4

>  <PUBCHEM_CACTVS_SUBSKEYS>  (1) 
AAADccBzPAIAAAAAAAAAAAAAAAAAASAAAAAgAAAAAAAAAAAAAAAAHgAQCCAACBThgAYBAAPABxCIQCFWUICAAAAAAgAIAAAIAECBEAIAgAAOQAAPFyIDAMCwMAIAAAAAAAAAAAAAAAAAAAAAAAAAAAAAAA==

>  <PUBCHEM_IUPAC_OPENEYE_NAME>  (1) 
[5-(2,4-dioxopyrimidin-1-yl)-3-hydroxy-tetrahydrofuran-2-yl]methyl dihydrogen phosphate

>  <PUBCHEM_IUPAC_CAS_NAME>  (1) 
[5-(2,4-dioxo-1-pyrimidinyl)-3-hydroxy-2-oxolanyl]methyl dihydrogen phosphate

>  <PUBCHEM_IUPAC_NAME_MARKUP>  (1) 
[5-(2,4-dioxopyrimidin-1-yl)-3-hydroxyoxolan-2-yl]methyl dihydrogen phosphate

>  <PUBCHEM_IUPAC_NAME>  (1) 
[5-(2,4-dioxopyrimidin-1-yl)-3-hydroxyoxolan-2-yl]methyl dihydrogen phosphate

>  <PUBCHEM_IUPAC_SYSTEMATIC_NAME>  (1) 
[5-[2,4-bis(oxidanylidene)pyrimidin-1-yl]-3-oxidanyl-oxolan-2-yl]methyl dihydrogen phosphate

>  <PUBCHEM_IUPAC_TRADITIONAL_NAME>  (1) 
[5-(2,4-diketopyrimidin-1-yl)-3-hydroxy-tetrahydrofuran-2-yl]methyl dihydrogen phosphate

>  <PUBCHEM_IUPAC_INCHI>  (1) 
InChI=1S/C9H13N2O8P/c12-5-3-8(11-2-1-7(13)10-9(11)14)19-6(5)4-18-20(15,16)17/h1-2,5-6,8,12H,3-4H2,(H,10,13,14)(H2,15,16,17)

>  <PUBCHEM_IUPAC_INCHIKEY>  (1) 
JSRLJPSBLDHEIO-UHFFFAOYSA-N

>  <PUBCHEM_XLOGP3>  (1) 
-3.3

>  <PUBCHEM_EXACT_MASS>  (1) 
308.040952

>  <PUBCHEM_MOLECULAR_FORMULA>  (1) 
C9H13N2O8P

>  <PUBCHEM_MOLECULAR_WEIGHT>  (1) 
308.18

>  <PUBCHEM_OPENEYE_CAN_SMILES>  (1) 
C1C(C(OC1N2C=CC(=O)NC2=O)COP(=O)(O)O)O

>  <PUBCHEM_OPENEYE_ISO_SMILES>  (1) 
C1C(C(OC1N2C=CC(=O)NC2=O)COP(=O)(O)O)O

>  <PUBCHEM_CACTVS_TPSA>  (1) 
146

>  <PUBCHEM_MONOISOTOPIC_WEIGHT>  (1) 
308.040952

>  <PUBCHEM_TOTAL_CHARGE>  (1) 
0

>  <PUBCHEM_HEAVY_ATOM_COUNT>  (1) 
20

>  <PUBCHEM_ATOM_DEF_STEREO_COUNT>  (1) 
0

>  <PUBCHEM_ATOM_UDEF_STEREO_COUNT>  (1) 
3

>  <PUBCHEM_BOND_DEF_STEREO_COUNT>  (1) 
0

>  <PUBCHEM_BOND_UDEF_STEREO_COUNT>  (1) 
0

>  <PUBCHEM_ISOTOPIC_ATOM_COUNT>  (1) 
0

>  <PUBCHEM_COMPONENT_COUNT>  (1) 
1

>  <PUBCHEM_CACTVS_TAUTO_COUNT>  (1) 
-1

>  <PUBCHEM_COORDINATE_TYPE>  (1) 
1
5
255

>  <PUBCHEM_BONDANNOTATIONS>  (1) 
15  10  3
10  17  8
10  18  8
11  17  8
11  20  8
13  16  3
18  19  8
19  20  8
12  3  3

$$$$
