693
     RDKit          2D

 31 31  0  0  1  0  0  0  0  0999 V2000
   11.0160    1.3809    0.0000 O   0  0  0  0  0  0  0  0  0  0  0  0
   10.3010    2.6995    0.0000 C   0  0  0  0  0  0  0  0  0  0  0  0
    9.5166    1.4210    0.0000 C   0  0  0  0  0  0  0  0  0  0  0  0
    8.1979    0.7060    0.0000 C   0  0  0  0  0  0  0  0  0  0  0  0
    9.1781    3.6941    0.0000 C   0  0  0  0  0  0  0  0  0  0  0  0
   11.4755    3.6327    0.0000 C   0  0  0  0  0  0  0  0  0  0  0  0
    6.9194    1.4905    0.0000 C   0  0  0  0  0  0  0  0  0  0  0  0
    5.6008    0.7755    0.0000 C   0  0  0  0  0  0  0  0  0  0  0  0
    5.5607   -0.7240    0.0000 C   0  0  0  0  0  0  0  0  0  0  0  0
    4.3223    1.5600    0.0000 C   0  0  0  0  0  0  0  0  0  0  0  0
    4.2420   -1.4390    0.0000 C   0  0  0  0  0  0  0  0  0  0  0  0
    4.2019   -2.9384    0.0000 C   0  0  0  0  0  0  0  0  0  0  0  0
    2.8833   -3.6534    0.0000 C   0  0  0  0  0  0  0  0  0  0  0  0
    1.6048   -2.8690    0.0000 C   0  0  0  0  0  0  0  0  0  0  0  0
    2.8432   -5.1529    0.0000 C   0  0  0  0  0  0  0  0  0  0  0  0
    0.2862   -3.5839    0.0000 C   0  0  0  0  0  0  0  0  0  0  0  0
   -0.9924   -2.7995    0.0000 C   0  0  0  0  0  0  0  0  0  0  0  0
   -3.5494   -1.2305    0.0000 C   0  0  0  0  0  0  0  0  0  0  0  0
   -2.3110   -3.5145    0.0000 C   0  0  0  0  0  0  0  0  0  0  0  0
   -3.5895   -2.7300    0.0000 C   0  0  0  0  0  0  0  0  0  0  0  0
   -4.8279   -0.4461    0.0000 C   0  0  0  0  0  0  0  0  0  0  0  0
   -6.0663    1.8379    0.0000 C   0  0  0  0  0  0  0  0  0  0  0  0
   -4.7878    1.0534    0.0000 C   0  0  0  0  0  0  0  0  0  0  0  0
   -7.3850    1.1229    0.0000 C   0  0  0  0  0  0  0  0  0  0  0  0
   -4.9081   -3.4450    0.0000 C   0  0  0  0  0  0  0  0  0  0  0  0
   -8.6635    1.9073    0.0000 C   0  0  0  0  0  0  0  0  0  0  0  0
   -6.0262    3.3373    0.0000 C   0  0  0  0  0  0  0  0  0  0  0  0
   -9.9821    1.1923    0.0000 C   0  0  0  0  0  0  0  0  0  0  0  0
  -11.2606    1.9768    0.0000 C   0  0  0  0  0  0  0  0  0  0  0  0
  -12.5793    1.2618    0.0000 C   0  0  0  0  0  0  0  0  0  0  0  0
  -11.2205    3.4763    0.0000 C   0  0  0  0  0  0  0  0  0  0  0  0
  1  2  1  0
  1  3  1  0
  2  3  1  0
  2  5  1  0
  2  6  1  0
  3  4  1  0
  4  7  1  0
  7  8  1  0
  8  9  2  3
  8 10  1  0
  9 11  1  0
 11 12  1  0
 12 13  1  0
 13 14  2  3
 13 15  1  0
 14 16  1  0
 16 17  1  0
 17 19  1  0
 18 20  1  0
 18 21  1  0
 19 20  2  3
 20 25  1  0
 21 23  1  0
 22 23  2  3
 22 24  1  0
 22 27  1  0
 24 26  1  0
 26 28  1  0
 28 29  2  3
 29 30  1  0
 29 31  1  0
M  END
>  <PUBCHEM_COMPOUND_CID>  (1) 
693

>  <PUBCHEM_COMPOUND_CANONICALIZED>  (1) 
1

>  <PUBCHEM_CACTVS_COMPLEXITY>  (1) 
677

>  <PUBCHEM_CACTVS_HBOND_ACCEPTOR>  (1) 
1

>  <PUBCHEM_CACTVS_HBOND_DONOR>  (1) 
0

>  <PUBCHEM_CACTVS_ROTATABLE_BOND>  (1) 
15

>  <PUBCHEM_CACTVS_SUBSKEYS>  (1) 
AAADcfB4IAAAAAAAAAAAAAAAEgAAAAAAAAAAAAAAAAAAAAAAAAAAGgAAAAAADFSggAICAAAABACAAiBCAAAAAAAgAAAACAAAAAgAAAIAAQACAAAEgAAIAAOAwEAMAAAAAAAAAAAAAAAAAAAAAAAAAAAAAA==

>  <PUBCHEM_IUPAC_OPENEYE_NAME>  (1) 
2,2-dimethyl-3-(3,7,12,16,20-pentamethylhenicosa-3,7,11,15,19-pentaenyl)oxirane

>  <PUBCHEM_IUPAC_CAS_NAME>  (1) 
2,2-dimethyl-3-(3,7,12,16,20-pentamethylheneicosa-3,7,11,15,19-pentaenyl)oxirane

>  <PUBCHEM_IUPAC_NAME_MARKUP>  (1) 
2,2-dimethyl-3-(3,7,12,16,20-pentamethylhenicosa-3,7,11,15,19-pentaenyl)oxirane

>  <PUBCHEM_IUPAC_NAME>  (1) 
2,2-dimethyl-3-(3,7,12,16,20-pentamethylhenicosa-3,7,11,15,19-pentaenyl)oxirane

>  <PUBCHEM_IUPAC_SYSTEMATIC_NAME>  (1) 
2,2-dimethyl-3-(3,7,12,16,20-pentamethylhenicosa-3,7,11,15,19-pentaenyl)oxirane

>  <PUBCHEM_IUPAC_TRADITIONAL_NAME>  (1) 
2,2-dimethyl-3-(3,7,12,16,20-pentamethylheneicosa-3,7,11,15,19-pentaenyl)oxirane

>  <PUBCHEM_IUPAC_INCHI>  (1) 
InChI=1S/C30H50O/c1-24(2)14-11-17-27(5)20-12-18-25(3)15-9-10-16-26(4)19-13-21-28(6)22-23-29-30(7,8)31-29/h14-16,20-21,29H,9-13,17-19,22-23H2,1-8H3

>  <PUBCHEM_IUPAC_INCHIKEY>  (1) 
QYIMSPSDBYKPPY-UHFFFAOYSA-N

>  <PUBCHEM_XLOGP3_AA>  (1) 
10.3

>  <PUBCHEM_EXACT_MASS>  (1) 
426.386166

>  <PUBCHEM_MOLECULAR_FORMULA>  (1) 
C30H50O

>  <PUBCHEM_MOLECULAR_WEIGHT>  (1) 
426.7

>  <PUBCHEM_OPENEYE_CAN_SMILES>  (1) 
CC(=CCCC(=CCCC(=CCCC=C(C)CCC=C(C)CCC1C(O1)(C)C)C)C)C

>  <PUBCHEM_OPENEYE_ISO_SMILES>  (1) 
CC(=CCCC(=CCCC(=CCCC=C(C)CCC=C(C)CCC1C(O1)(C)C)C)C)C

>  <PUBCHEM_CACTVS_TPSA>  (1) 
12.5

>  <PUBCHEM_MONOISOTOPIC_WEIGHT>  (1) 
426.386166

>  <PUBCHEM_TOTAL_CHARGE>  (1) 
0

>  <PUBCHEM_HEAVY_ATOM_COUNT>  (1) 
31

>  <PUBCHEM_ATOM_DEF_STEREO_COUNT>  (1) 
0

>  <PUBCHEM_ATOM_UDEF_STEREO_COUNT>  (1) 
1

>  <PUBCHEM_BOND_DEF_STEREO_COUNT>  (1) 
0

>  <PUBCHEM_BOND_UDEF_STEREO_COUNT>  (1) 
4

>  <PUBCHEM_ISOTOPIC_ATOM_COUNT>  (1) 
0

>  <PUBCHEM_COMPONENT_COUNT>  (1) 
1

>  <PUBCHEM_CACTVS_TAUTO_COUNT>  (1) 
-1

>  <PUBCHEM_COORDINATE_TYPE>  (1) 
1
5
255

>  <PUBCHEM_BONDANNOTATIONS>  (1) 
13  14  1
19  20  1
22  23  1
3  4  3
8  9  1

$$$$
