70
     RDKit          2D

  9  8  0  0  0  0  0  0  0  0999 V2000
    0.2826   -1.7410    0.0000 O   0  0  0  0  0  0  0  0  0  0  0  0
    3.0997   -0.7094    0.0000 O   0  0  0  0  0  0  0  0  0  0  0  0
    2.2062    1.7302    0.0000 O   0  0  0  0  0  0  0  0  0  0  0  0
   -2.0193    0.1828    0.0000 C   0  0  0  0  0  0  0  0  0  0  0  0
   -0.6108    0.6986    0.0000 C   0  0  0  0  0  0  0  0  0  0  0  0
   -3.1703    1.1447    0.0000 C   0  0  0  0  0  0  0  0  0  0  0  0
   -2.2769   -1.2950    0.0000 C   0  0  0  0  0  0  0  0  0  0  0  0
    0.5402   -0.2633    0.0000 C   0  0  0  0  0  0  0  0  0  0  0  0
    1.9487    0.2525    0.0000 C   0  0  0  0  0  0  0  0  0  0  0  0
  1  8  2  0
  2  9  1  0
  3  9  2  0
  4  5  1  0
  4  6  1  0
  4  7  1  0
  5  8  1  0
  8  9  1  0
M  END
>  <PUBCHEM_COMPOUND_CID>  (1) 
70

>  <PUBCHEM_COMPOUND_CANONICALIZED>  (1) 
1

>  <PUBCHEM_CACTVS_COMPLEXITY>  (1) 
126

>  <PUBCHEM_CACTVS_HBOND_ACCEPTOR>  (1) 
3

>  <PUBCHEM_CACTVS_HBOND_DONOR>  (1) 
1

>  <PUBCHEM_CACTVS_ROTATABLE_BOND>  (1) 
3

>  <PUBCHEM_CACTVS_SUBSKEYS>  (1) 
AAADccBgMAAAAAAAAAAAAAAAAAAAAAAAAAAAAAAAAAAAAAAAAAAAGgAACAAADQSAgAACCAAAAgAIAICQCAIAAAAAAAAAAAFAAAAAABIAAAAAQAAEAAAAAACIAAAMAAAAAAAAAAAAAAAAAAAAAAAAAAAAAA==

>  <PUBCHEM_IUPAC_OPENEYE_NAME>  (1) 
4-methyl-2-oxo-pentanoic acid

>  <PUBCHEM_IUPAC_CAS_NAME>  (1) 
4-methyl-2-oxopentanoic acid

>  <PUBCHEM_IUPAC_NAME_MARKUP>  (1) 
4-methyl-2-oxopentanoic acid

>  <PUBCHEM_IUPAC_NAME>  (1) 
4-methyl-2-oxopentanoic acid

>  <PUBCHEM_IUPAC_SYSTEMATIC_NAME>  (1) 
4-methyl-2-oxidanylidene-pentanoic acid

>  <PUBCHEM_IUPAC_TRADITIONAL_NAME>  (1) 
2-keto-4-methyl-valeric acid

>  <PUBCHEM_IUPAC_INCHI>  (1) 
InChI=1S/C6H10O3/c1-4(2)3-5(7)6(8)9/h4H,3H2,1-2H3,(H,8,9)

>  <PUBCHEM_IUPAC_INCHIKEY>  (1) 
BKAJNAXTPSGJCU-UHFFFAOYSA-N

>  <PUBCHEM_XLOGP3_AA>  (1) 
0.9

>  <PUBCHEM_EXACT_MASS>  (1) 
130.062994

>  <PUBCHEM_MOLECULAR_FORMULA>  (1) 
C6H10O3

>  <PUBCHEM_MOLECULAR_WEIGHT>  (1) 
130.14

>  <PUBCHEM_OPENEYE_CAN_SMILES>  (1) 
CC(C)CC(=O)C(=O)O

>  <PUBCHEM_OPENEYE_ISO_SMILES>  (1) 
CC(C)CC(=O)C(=O)O

>  <PUBCHEM_CACTVS_TPSA>  (1) 
54.4

>  <PUBCHEM_MONOISOTOPIC_WEIGHT>  (1) 
130.062994

>  <PUBCHEM_TOTAL_CHARGE>  (1) 
0

>  <PUBCHEM_HEAVY_ATOM_COUNT>  (1) 
9

>  <PUBCHEM_ATOM_DEF_STEREO_COUNT>  (1) 
0

>  <PUBCHEM_ATOM_UDEF_STEREO_COUNT>  (1) 
0

>  <PUBCHEM_BOND_DEF_STEREO_COUNT>  (1) 
0

>  <PUBCHEM_BOND_UDEF_STEREO_COUNT>  (1) 
0

>  <PUBCHEM_ISOTOPIC_ATOM_COUNT>  (1) 
0

>  <PUBCHEM_COMPONENT_COUNT>  (1) 
1

>  <PUBCHEM_CACTVS_TAUTO_COUNT>  (1) 
-1

>  <PUBCHEM_COORDINATE_TYPE>  (1) 
1
5
255

$$$$
