700
     RDKit          2D

  4  3  0  0  0  0  0  0  0  0999 V2000
   -1.9796    0.1365    0.0000 O   0  0  0  0  0  0  0  0  0  0  0  0
    1.9796   -0.1365    0.0000 N   0  0  0  0  0  0  0  0  0  0  0  0
    0.5994    0.4508    0.0000 C   0  0  0  0  0  0  0  0  0  0  0  0
   -0.5994   -0.4508    0.0000 C   0  0  0  0  0  0  0  0  0  0  0  0
  1  4  1  0
  2  3  1  0
  3  4  1  0
M  END
>  <PUBCHEM_COMPOUND_CID>  (1) 
700

>  <PUBCHEM_COMPOUND_CANONICALIZED>  (1) 
1

>  <PUBCHEM_CACTVS_COMPLEXITY>  (1) 
10

>  <PUBCHEM_CACTVS_HBOND_ACCEPTOR>  (1) 
2

>  <PUBCHEM_CACTVS_HBOND_DONOR>  (1) 
2

>  <PUBCHEM_CACTVS_ROTATABLE_BOND>  (1) 
1

>  <PUBCHEM_CACTVS_SUBSKEYS>  (1) 
AAADcYBCIAAAAAAAAAAAAAAAAAAAAAAAAAAAAAAAAAAAAAAAAAAAHgAQCAAAAADhgAYAAABAAgAAAAAAAAAAAAAAAAAAAIAAAAACEAAAAAAAAAAAEAAAAAAAAAAAAAAAAAAAAAAAAAAAAAAAAAAAAAAAAA==

>  <PUBCHEM_IUPAC_OPENEYE_NAME>  (1) 
2-aminoethanol

>  <PUBCHEM_IUPAC_CAS_NAME>  (1) 
2-aminoethanol

>  <PUBCHEM_IUPAC_NAME_MARKUP>  (1) 
2-aminoethanol

>  <PUBCHEM_IUPAC_NAME>  (1) 
2-aminoethanol

>  <PUBCHEM_IUPAC_SYSTEMATIC_NAME>  (1) 
2-azanylethanol

>  <PUBCHEM_IUPAC_TRADITIONAL_NAME>  (1) 
2-aminoethanol

>  <PUBCHEM_IUPAC_INCHI>  (1) 
InChI=1S/C2H7NO/c3-1-2-4/h4H,1-3H2

>  <PUBCHEM_IUPAC_INCHIKEY>  (1) 
HZAXFHJVJLSVMW-UHFFFAOYSA-N

>  <PUBCHEM_XLOGP3>  (1) 
-1.3

>  <PUBCHEM_EXACT_MASS>  (1) 
61.052764

>  <PUBCHEM_MOLECULAR_FORMULA>  (1) 
C2H7NO

>  <PUBCHEM_MOLECULAR_WEIGHT>  (1) 
61.08

>  <PUBCHEM_OPENEYE_CAN_SMILES>  (1) 
C(CO)N

>  <PUBCHEM_OPENEYE_ISO_SMILES>  (1) 
C(CO)N

>  <PUBCHEM_CACTVS_TPSA>  (1) 
46.2

>  <PUBCHEM_MONOISOTOPIC_WEIGHT>  (1) 
61.052764

>  <PUBCHEM_TOTAL_CHARGE>  (1) 
0

>  <PUBCHEM_HEAVY_ATOM_COUNT>  (1) 
4

>  <PUBCHEM_ATOM_DEF_STEREO_COUNT>  (1) 
0

>  <PUBCHEM_ATOM_UDEF_STEREO_COUNT>  (1) 
0

>  <PUBCHEM_BOND_DEF_STEREO_COUNT>  (1) 
0

>  <PUBCHEM_BOND_UDEF_STEREO_COUNT>  (1) 
0

>  <PUBCHEM_ISOTOPIC_ATOM_COUNT>  (1) 
0

>  <PUBCHEM_COMPONENT_COUNT>  (1) 
1

>  <PUBCHEM_CACTVS_TAUTO_COUNT>  (1) 
-1

>  <PUBCHEM_COORDINATE_TYPE>  (1) 
1
5
255

$$$$
