704
     RDKit          2D

 36 38  0  0  1  0  0  0  0  0999 V2000
   -0.9375   -2.7051    0.0000 P   0  0  0  0  0  0  0  0  0  0  0  0
   -3.5189   -2.9993    0.0000 P   0  0  0  0  0  0  0  0  0  0  0  0
    2.7347    0.1188    0.0000 O   0  0  0  0  0  0  0  0  0  0  0  0
    3.1644    3.9764    0.0000 O   0  0  0  0  0  0  0  0  0  0  0  0
    0.0697    2.9408    0.0000 O   0  0  0  0  0  0  0  0  0  0  0  0
    0.2682   -1.8128    0.0000 O   0  0  0  0  0  0  0  0  0  0  0  0
   -2.1433   -3.5974    0.0000 O   0  0  0  0  0  0  0  0  0  0  0  0
   -4.8945   -2.4012    0.0000 O   0  0  0  0  0  0  0  0  0  0  0  0
   -0.0452   -3.9108    0.0000 O   0  0  0  0  0  0  0  0  0  0  0  0
   -5.4041    2.0698    0.0000 O   0  0  0  0  0  0  0  0  0  0  0  0
   -1.8298   -1.4993    0.0000 O   0  0  0  0  0  0  0  0  0  0  0  0
   -7.6457   -1.2051    0.0000 O   0  0  0  0  0  0  0  0  0  0  0  0
   -9.1912    0.8833    0.0000 O   0  0  0  0  0  0  0  0  0  0  0  0
   -2.9208   -1.6237    0.0000 O   0  0  0  0  0  0  0  0  0  0  0  0
   -4.1169   -4.3749    0.0000 O   0  0  0  0  0  0  0  0  0  0  0  0
    5.1056    1.3532    0.0000 N   0  0  0  0  0  0  0  0  0  0  0  0
    7.4072    2.1234    0.0000 N   0  0  0  0  0  0  0  0  0  0  0  0
    5.6989   -1.3224    0.0000 N   0  0  0  0  0  0  0  0  0  0  0  0
    8.2449   -1.8403    0.0000 N   0  0  0  0  0  0  0  0  0  0  0  0
    9.9663    0.1056    0.0000 N   0  0  0  0  0  0  0  0  0  0  0  0
   -9.5309    3.8640    0.0000 N   0  0  0  0  0  0  0  0  0  0  0  0
    2.7134    2.5458    0.0000 C   0  0  0  0  0  0  0  0  0  0  0  0
    1.2910    2.0698    0.0000 C   0  0  0  0  0  0  0  0  0  0  0  0
    3.6057    1.3401    0.0000 C   0  0  0  0  0  0  0  0  0  0  0  0
    1.3041    0.5698    0.0000 C   0  0  0  0  0  0  0  0  0  0  0  0
    0.0984   -0.3224    0.0000 C   0  0  0  0  0  0  0  0  0  0  0  0
    5.9979    0.1475    0.0000 C   0  0  0  0  0  0  0  0  0  0  0  0
    5.9766    2.5744    0.0000 C   0  0  0  0  0  0  0  0  0  0  0  0
    7.4204    0.6235    0.0000 C   0  0  0  0  0  0  0  0  0  0  0  0
    8.5439   -0.3704    0.0000 C   0  0  0  0  0  0  0  0  0  0  0  0
   -6.6098    1.1775    0.0000 C   0  0  0  0  0  0  0  0  0  0  0  0
   -6.4400   -0.3128    0.0000 C   0  0  0  0  0  0  0  0  0  0  0  0
   -7.9855    1.7756    0.0000 C   0  0  0  0  0  0  0  0  0  0  0  0
   -5.0644   -0.9109    0.0000 C   0  0  0  0  0  0  0  0  0  0  0  0
    6.8224   -2.3163    0.0000 C   0  0  0  0  0  0  0  0  0  0  0  0
   -8.1553    3.2659    0.0000 C   0  0  0  0  0  0  0  0  0  0  0  0
  1  6  1  0
  1  7  1  0
  1  9  1  0
  1 11  2  0
  2  7  1  0
  2  8  1  0
  2 14  1  0
  2 15  2  0
  3 24  1  0
  3 25  1  0
  4 22  1  0
  5 23  1  0
  6 26  1  0
  8 34  1  0
 10 31  1  0
 12 32  1  0
 13 33  1  0
 16 24  1  0
 16 27  1  0
 16 28  1  0
 17 28  2  0
 17 29  1  0
 18 27  1  0
 18 35  2  0
 19 30  2  0
 19 35  1  0
 20 30  1  0
 21 36  1  0
 22 23  1  0
 22 24  1  0
 23 25  1  0
 25 26  1  0
 27 29  2  0
 29 30  1  0
 31 32  1  0
 31 33  1  0
 32 34  1  0
 33 36  1  0
M  END
>  <PUBCHEM_COMPOUND_CID>  (1) 
704

>  <PUBCHEM_COMPOUND_CANONICALIZED>  (1) 
1

>  <PUBCHEM_CACTVS_COMPLEXITY>  (1) 
833

>  <PUBCHEM_CACTVS_HBOND_ACCEPTOR>  (1) 
18

>  <PUBCHEM_CACTVS_HBOND_DONOR>  (1) 
9

>  <PUBCHEM_CACTVS_ROTATABLE_BOND>  (1) 
12

>  <PUBCHEM_CACTVS_SUBSKEYS>  (1) 
AAADceBzvAMAAAAAAAAAAAAAAAAAAWJAAAAsAAAAAAAAAFgB+AAAHgAQCCAACBzhlwYF8L9MFxCgQQZhZICAgC0REKABUKAoVBCDWAJAyEAeRAgPEALTACDwMAIAAAAAAAAAAAAAAAAAAAAAAAAAAAAAAA==

>  <PUBCHEM_IUPAC_OPENEYE_NAME>  (1) 
[[5-(6-aminopurin-9-yl)-3,4-dihydroxy-tetrahydrofuran-2-yl]methoxy-hydroxy-phosphoryl] (5-amino-2,3,4-trihydroxy-pentyl) hydrogen phosphate

>  <PUBCHEM_IUPAC_CAS_NAME>  (1) 
[[5-(6-aminopurin-9-yl)-3,4-dihydroxy-2-oxolanyl]methoxy-hydroxyphosphoryl] (5-amino-2,3,4-trihydroxypentyl) hydrogen phosphate

>  <PUBCHEM_IUPAC_NAME_MARKUP>  (1) 
[[5-(6-aminopurin-9-yl)-3,4-dihydroxyoxolan-2-yl]methoxy-hydroxyphosphoryl] (5-amino-2,3,4-trihydroxypentyl) hydrogen phosphate

>  <PUBCHEM_IUPAC_NAME>  (1) 
[[5-(6-aminopurin-9-yl)-3,4-dihydroxyoxolan-2-yl]methoxy-hydroxyphosphoryl] (5-amino-2,3,4-trihydroxypentyl) hydrogen phosphate

>  <PUBCHEM_IUPAC_SYSTEMATIC_NAME>  (1) 
[[5-(6-aminopurin-9-yl)-3,4-bis(oxidanyl)oxolan-2-yl]methoxy-oxidanyl-phosphoryl] [5-azanyl-2,3,4-tris(oxidanyl)pentyl] hydrogen phosphate

>  <PUBCHEM_IUPAC_TRADITIONAL_NAME>  (1) 
[(5-adenin-9-yl-3,4-dihydroxy-tetrahydrofuran-2-yl)methoxy-hydroxy-phosphoryl] (5-amino-2,3,4-trihydroxy-pentyl) hydrogen phosphate

>  <PUBCHEM_IUPAC_INCHI>  (1) 
InChI=1S/C15H26N6O13P2/c16-1-6(22)10(24)7(23)2-31-35(27,28)34-36(29,30)32-3-8-11(25)12(26)15(33-8)21-5-20-9-13(17)18-4-19-14(9)21/h4-8,10-12,15,22-26H,1-3,16H2,(H,27,28)(H,29,30)(H2,17,18,19)

>  <PUBCHEM_IUPAC_INCHIKEY>  (1) 
JFHZDRWPWXRIBP-UHFFFAOYSA-N

>  <PUBCHEM_XLOGP3>  (1) 
-9.2

>  <PUBCHEM_EXACT_MASS>  (1) 
560.103309

>  <PUBCHEM_MOLECULAR_FORMULA>  (1) 
C15H26N6O13P2

>  <PUBCHEM_MOLECULAR_WEIGHT>  (1) 
560.35

>  <PUBCHEM_OPENEYE_CAN_SMILES>  (1) 
C1=NC(=C2C(=N1)N(C=N2)C3C(C(C(O3)COP(=O)(O)OP(=O)(O)OCC(C(C(CN)O)O)O)O)O)N

>  <PUBCHEM_OPENEYE_ISO_SMILES>  (1) 
C1=NC(=C2C(=N1)N(C=N2)C3C(C(C(O3)COP(=O)(O)OP(=O)(O)OCC(C(C(CN)O)O)O)O)O)N

>  <PUBCHEM_CACTVS_TPSA>  (1) 
308

>  <PUBCHEM_MONOISOTOPIC_WEIGHT>  (1) 
560.103309

>  <PUBCHEM_TOTAL_CHARGE>  (1) 
0

>  <PUBCHEM_HEAVY_ATOM_COUNT>  (1) 
36

>  <PUBCHEM_ATOM_DEF_STEREO_COUNT>  (1) 
0

>  <PUBCHEM_ATOM_UDEF_STEREO_COUNT>  (1) 
7

>  <PUBCHEM_BOND_DEF_STEREO_COUNT>  (1) 
0

>  <PUBCHEM_BOND_UDEF_STEREO_COUNT>  (1) 
0

>  <PUBCHEM_ISOTOPIC_ATOM_COUNT>  (1) 
0

>  <PUBCHEM_COMPONENT_COUNT>  (1) 
1

>  <PUBCHEM_CACTVS_TAUTO_COUNT>  (1) 
-1

>  <PUBCHEM_COORDINATE_TYPE>  (1) 
1
5
255

>  <PUBCHEM_BONDANNOTATIONS>  (1) 
31  10  3
32  12  3
33  13  3
24  16  3
16  27  8
16  28  8
17  28  8
17  29  8
18  27  8
18  35  8
19  30  8
19  35  8
25  26  3
27  29  8
29  30  8
22  4  3
23  5  3

$$$$
