705
     RDKit          2D

 53 58  0  0  1  0  0  0  0  0999 V2000
    3.1203   -4.2764    0.0000 P   0  0  0  0  0  0  0  0  0  0  0  0
    0.5862   -4.8497    0.0000 P   0  0  0  0  0  0  0  0  0  0  0  0
    6.4634   -1.0697    0.0000 O   0  0  0  0  0  0  0  0  0  0  0  0
    6.4709    2.8117    0.0000 O   0  0  0  0  0  0  0  0  0  0  0  0
    3.5072    1.4455    0.0000 O   0  0  0  0  0  0  0  0  0  0  0  0
    4.2218   -3.2582    0.0000 O   0  0  0  0  0  0  0  0  0  0  0  0
   -5.4749   -1.6074    0.0000 O   0  0  0  0  0  0  0  0  0  0  0  0
    2.0188   -5.2946    0.0000 O   0  0  0  0  0  0  0  0  0  0  0  0
   -1.8393   -0.0158    0.0000 O   0  0  0  0  0  0  0  0  0  0  0  0
   -0.8463   -4.4049    0.0000 O   0  0  0  0  0  0  0  0  0  0  0  0
   -3.7113   -3.5152    0.0000 O   0  0  0  0  0  0  0  0  0  0  0  0
    2.1021   -3.1749    0.0000 O   0  0  0  0  0  0  0  0  0  0  0  0
    4.1385   -5.3779    0.0000 O   0  0  0  0  0  0  0  0  0  0  0  0
    0.1414   -6.2823    0.0000 O   0  0  0  0  0  0  0  0  0  0  0  0
   -9.6640    5.1344    0.0000 O   0  0  0  0  0  0  0  0  0  0  0  0
    1.0311   -3.4172    0.0000 O   0  0  0  0  0  0  0  0  0  0  0  0
   -4.5959    6.2811    0.0000 O   0  0  0  0  0  0  0  0  0  0  0  0
    8.6860    0.4153    0.0000 N   0  0  0  0  0  0  0  0  0  0  0  0
   -6.1369    1.3187    0.0000 N   0  0  0  0  0  0  0  0  0  0  0  0
   11.0664   -0.0582    0.0000 N   0  0  0  0  0  0  0  0  0  0  0  0
    8.9368    3.1445    0.0000 N   0  0  0  0  0  0  0  0  0  0  0  0
   -9.0019    2.2084    0.0000 N   0  0  0  0  0  0  0  0  0  0  0  0
   -5.3664    3.7999    0.0000 N   0  0  0  0  0  0  0  0  0  0  0  0
   11.3970    3.9795    0.0000 N   0  0  0  0  0  0  0  0  0  0  0  0
   -7.1300    5.7077    0.0000 N   0  0  0  0  0  0  0  0  0  0  0  0
   13.3503    2.2665    0.0000 N   0  0  0  0  0  0  0  0  0  0  0  0
    6.1782    1.3406    0.0000 C   0  0  0  0  0  0  0  0  0  0  0  0
    4.8160    0.7126    0.0000 C   0  0  0  0  0  0  0  0  0  0  0  0
    7.1964    0.2391    0.0000 C   0  0  0  0  0  0  0  0  0  0  0  0
    4.9923   -0.7770    0.0000 C   0  0  0  0  0  0  0  0  0  0  0  0
    3.8908   -1.7952    0.0000 C   0  0  0  0  0  0  0  0  0  0  0  0
    9.4189    1.7241    0.0000 C   0  0  0  0  0  0  0  0  0  0  0  0
    9.7042   -0.6862    0.0000 C   0  0  0  0  0  0  0  0  0  0  0  0
   10.8901    1.4314    0.0000 C   0  0  0  0  0  0  0  0  0  0  0  0
   -4.3734   -0.5892    0.0000 C   0  0  0  0  0  0  0  0  0  0  0  0
   -4.7044    0.8738    0.0000 C   0  0  0  0  0  0  0  0  0  0  0  0
   -2.9408   -1.0340    0.0000 C   0  0  0  0  0  0  0  0  0  0  0  0
   -7.2384    0.3005    0.0000 C   0  0  0  0  0  0  0  0  0  0  0  0
   -2.6098   -2.4970    0.0000 C   0  0  0  0  0  0  0  0  0  0  0  0
   -6.4679    2.7817    0.0000 C   0  0  0  0  0  0  0  0  0  0  0  0
   -8.6709    0.7453    0.0000 C   0  0  0  0  0  0  0  0  0  0  0  0
   -7.9004    3.2265    0.0000 C   0  0  0  0  0  0  0  0  0  0  0  0
   11.8792    2.5591    0.0000 C   0  0  0  0  0  0  0  0  0  0  0  0
   -1.1773   -2.9419    0.0000 C   0  0  0  0  0  0  0  0  0  0  0  0
   -6.9074   -1.1625    0.0000 C   0  0  0  0  0  0  0  0  0  0  0  0
   -9.7724   -0.2728    0.0000 C   0  0  0  0  0  0  0  0  0  0  0  0
   -8.0089   -2.1807    0.0000 C   0  0  0  0  0  0  0  0  0  0  0  0
   -9.4414   -1.7359    0.0000 C   0  0  0  0  0  0  0  0  0  0  0  0
    9.9259    4.2722    0.0000 C   0  0  0  0  0  0  0  0  0  0  0  0
   -8.2315    4.6896    0.0000 C   0  0  0  0  0  0  0  0  0  0  0  0
   -5.6974    5.2629    0.0000 C   0  0  0  0  0  0  0  0  0  0  0  0
   -7.6779   -3.6437    0.0000 C   0  0  0  0  0  0  0  0  0  0  0  0
  -10.5429   -2.7540    0.0000 C   0  0  0  0  0  0  0  0  0  0  0  0
  1  6  1  0
  1  8  1  0
  1 12  1  0
  1 13  2  0
  2  8  1  0
  2 10  1  0
  2 14  1  0
  2 16  2  0
  3 29  1  0
  3 30  1  0
  4 27  1  0
  5 28  1  0
  6 31  1  0
  7 35  1  0
  9 37  1  0
 10 44  1  0
 11 39  1  0
 15 50  2  0
 17 51  2  0
 18 29  1  0
 18 32  1  0
 18 33  1  0
 19 36  1  0
 19 38  1  0
 19 40  1  0
 20 33  2  0
 20 34  1  0
 21 32  1  0
 21 49  2  0
 22 41  1  0
 22 42  1  0
 23 40  1  0
 23 51  1  0
 24 43  2  0
 24 49  1  0
 25 50  1  0
 25 51  1  0
 26 43  1  0
 27 28  1  0
 27 29  1  0
 28 30  1  0
 30 31  1  0
 32 34  2  0
 34 43  1  0
 35 36  1  0
 35 37  1  0
 37 39  1  0
 38 41  2  0
 38 45  1  0
 39 44  1  0
 40 42  2  0
 41 46  1  0
 42 50  1  0
 45 47  2  0
 46 48  2  0
 47 48  1  0
 47 52  1  0
 48 53  1  0
M  END
>  <PUBCHEM_COMPOUND_CID>  (1) 
705

>  <PUBCHEM_COMPOUND_CANONICALIZED>  (1) 
1

>  <PUBCHEM_CACTVS_COMPLEXITY>  (1) 
1520

>  <PUBCHEM_CACTVS_HBOND_ACCEPTOR>  (1) 
21

>  <PUBCHEM_CACTVS_HBOND_DONOR>  (1) 
11

>  <PUBCHEM_CACTVS_ROTATABLE_BOND>  (1) 
13

>  <PUBCHEM_CACTVS_SUBSKEYS>  (1) 
AAADcfB7/AMAAAAAAAAAAAAAAAAAAWJAAAA8QIEAAAAAAFix/AAAHgAQCCAADBzhnwY38L/MFxCoQydzdICCgC0xEqAB2CCodNiLeCLA2fGeZAhvlSLbyGfwsIIOiAAAQAAQACAQAACAACAAQAAAAAAAAA==

>  <PUBCHEM_IUPAC_OPENEYE_NAME>  (1) 
[[5-(6-aminopurin-9-yl)-3,4-dihydroxy-tetrahydrofuran-2-yl]methoxy-hydroxy-phosphoryl] [5-(7,8-dimethyl-2,4-dioxo-1,5-dihydrobenzo[g]pteridin-10-yl)-2,3,4-trihydroxy-pentyl] hydrogen phosphate

>  <PUBCHEM_IUPAC_CAS_NAME>  (1) 
[[5-(6-aminopurin-9-yl)-3,4-dihydroxy-2-oxolanyl]methoxy-hydroxyphosphoryl] [5-(7,8-dimethyl-2,4-dioxo-1,5-dihydrobenzo[g]pteridin-10-yl)-2,3,4-trihydroxypentyl] hydrogen phosphate

>  <PUBCHEM_IUPAC_NAME_MARKUP>  (1) 
[[5-(6-aminopurin-9-yl)-3,4-dihydroxyoxolan-2-yl]methoxy-hydroxyphosphoryl] [5-(7,8-dimethyl-2,4-dioxo-1,5-dihydrobenzo[g]pteridin-10-yl)-2,3,4-trihydroxypentyl] hydrogen phosphate

>  <PUBCHEM_IUPAC_NAME>  (1) 
[[5-(6-aminopurin-9-yl)-3,4-dihydroxyoxolan-2-yl]methoxy-hydroxyphosphoryl] [5-(7,8-dimethyl-2,4-dioxo-1,5-dihydrobenzo[g]pteridin-10-yl)-2,3,4-trihydroxypentyl] hydrogen phosphate

>  <PUBCHEM_IUPAC_SYSTEMATIC_NAME>  (1) 
[[5-(6-aminopurin-9-yl)-3,4-bis(oxidanyl)oxolan-2-yl]methoxy-oxidanyl-phosphoryl] [5-[7,8-dimethyl-2,4-bis(oxidanylidene)-1,5-dihydrobenzo[g]pteridin-10-yl]-2,3,4-tris(oxidanyl)pentyl] hydrogen phosphate

>  <PUBCHEM_IUPAC_TRADITIONAL_NAME>  (1) 
[(5-adenin-9-yl-3,4-dihydroxy-tetrahydrofuran-2-yl)methoxy-hydroxy-phosphoryl] [5-(2,4-diketo-7,8-dimethyl-1,5-dihydrobenzo[g]pteridin-10-yl)-2,3,4-trihydroxy-pentyl] hydrogen phosphate

>  <PUBCHEM_IUPAC_INCHI>  (1) 
InChI=1S/C27H35N9O15P2/c1-10-3-12-13(4-11(10)2)35(24-18(32-12)25(42)34-27(43)33-24)5-14(37)19(39)15(38)6-48-52(44,45)51-53(46,47)49-7-16-20(40)21(41)26(50-16)36-9-31-17-22(28)29-8-30-23(17)36/h3-4,8-9,14-16,19-21,26,32,37-41H,5-7H2,1-2H3,(H,44,45)(H,46,47)(H2,28,29,30)(H2,33,34,42,43)

>  <PUBCHEM_IUPAC_INCHIKEY>  (1) 
YPZRHBJKEMOYQH-UHFFFAOYSA-N

>  <PUBCHEM_XLOGP3_AA>  (1) 
-4.8

>  <PUBCHEM_EXACT_MASS>  (1) 
787.172785

>  <PUBCHEM_MOLECULAR_FORMULA>  (1) 
C27H35N9O15P2

>  <PUBCHEM_MOLECULAR_WEIGHT>  (1) 
787.6

>  <PUBCHEM_OPENEYE_CAN_SMILES>  (1) 
CC1=CC2=C(C=C1C)N(C3=C(N2)C(=O)NC(=O)N3)CC(C(C(COP(=O)(O)OP(=O)(O)OCC4C(C(C(O4)N5C=NC6=C(N=CN=C65)N)O)O)O)O)O

>  <PUBCHEM_OPENEYE_ISO_SMILES>  (1) 
CC1=CC2=C(C=C1C)N(C3=C(N2)C(=O)NC(=O)N3)CC(C(C(COP(=O)(O)OP(=O)(O)OCC4C(C(C(O4)N5C=NC6=C(N=CN=C65)N)O)O)O)O)O

>  <PUBCHEM_CACTVS_TPSA>  (1) 
356

>  <PUBCHEM_MONOISOTOPIC_WEIGHT>  (1) 
787.172785

>  <PUBCHEM_TOTAL_CHARGE>  (1) 
0

>  <PUBCHEM_HEAVY_ATOM_COUNT>  (1) 
53

>  <PUBCHEM_ATOM_DEF_STEREO_COUNT>  (1) 
0

>  <PUBCHEM_ATOM_UDEF_STEREO_COUNT>  (1) 
7

>  <PUBCHEM_BOND_DEF_STEREO_COUNT>  (1) 
0

>  <PUBCHEM_BOND_UDEF_STEREO_COUNT>  (1) 
0

>  <PUBCHEM_ISOTOPIC_ATOM_COUNT>  (1) 
0

>  <PUBCHEM_COMPONENT_COUNT>  (1) 
1

>  <PUBCHEM_CACTVS_TAUTO_COUNT>  (1) 
-1

>  <PUBCHEM_COORDINATE_TYPE>  (1) 
1
5
255

>  <PUBCHEM_BONDANNOTATIONS>  (1) 
39  11  3
29  18  3
18  32  8
18  33  8
20  33  8
20  34  8
21  32  8
21  49  8
23  40  8
23  51  8
24  43  8
24  49  8
25  50  8
25  51  8
30  31  3
32  34  8
34  43  8
38  41  8
38  45  8
27  4  3
40  42  8
41  46  8
42  50  8
45  47  8
46  48  8
47  48  8
28  5  3
35  7  3
37  9  3

$$$$
