707
     RDKit          2D

 41 40  0  0  0  0  0  0  0  0999 V2000
    7.3785    1.5731    0.0000 O   0  0  0  0  0  0  0  0  0  0  0  0
   -8.5016   -1.7545    0.0000 C   0  0  0  0  0  0  0  0  0  0  0  0
   -4.0045   -1.9165    0.0000 C   0  0  0  0  0  0  0  0  0  0  0  0
   -7.0026   -1.8085    0.0000 C   0  0  0  0  0  0  0  0  0  0  0  0
   -6.1128    2.0590    0.0000 C   0  0  0  0  0  0  0  0  0  0  0  0
   -6.9090    0.7878    0.0000 C   0  0  0  0  0  0  0  0  0  0  0  0
   -2.5055   -1.9705    0.0000 C   0  0  0  0  0  0  0  0  0  0  0  0
   -9.2043   -0.4294    0.0000 C   0  0  0  0  0  0  0  0  0  0  0  0
   -4.8008   -3.1877    0.0000 C   0  0  0  0  0  0  0  0  0  0  0  0
   -4.6137    2.0050    0.0000 C   0  0  0  0  0  0  0  0  0  0  0  0
    0.4926   -2.0785    0.0000 C   0  0  0  0  0  0  0  0  0  0  0  0
   -2.3184    3.2222    0.0000 C   0  0  0  0  0  0  0  0  0  0  0  0
   -0.3037   -3.3497    0.0000 C   0  0  0  0  0  0  0  0  0  0  0  0
   -1.5222    4.4934    0.0000 C   0  0  0  0  0  0  0  0  0  0  0  0
   -6.2998   -3.1337    0.0000 C   0  0  0  0  0  0  0  0  0  0  0  0
   -8.4081    0.8418    0.0000 C   0  0  0  0  0  0  0  0  0  0  0  0
    1.9916   -2.1325    0.0000 C   0  0  0  0  0  0  0  0  0  0  0  0
   -1.8027   -3.2957    0.0000 C   0  0  0  0  0  0  0  0  0  0  0  0
   -3.8175    3.2762    0.0000 C   0  0  0  0  0  0  0  0  0  0  0  0
   -0.0231    4.4394    0.0000 C   0  0  0  0  0  0  0  0  0  0  0  0
    2.7879   -0.8613    0.0000 C   0  0  0  0  0  0  0  0  0  0  0  0
    4.2869   -0.9153    0.0000 C   0  0  0  0  0  0  0  0  0  0  0  0
  -10.7034   -0.3754    0.0000 C   0  0  0  0  0  0  0  0  0  0  0  0
    4.9897   -2.2405    0.0000 C   0  0  0  0  0  0  0  0  0  0  0  0
   -4.0980   -4.5129    0.0000 C   0  0  0  0  0  0  0  0  0  0  0  0
    2.1786    3.0603    0.0000 C   0  0  0  0  0  0  0  0  0  0  0  0
    0.6796    3.1143    0.0000 C   0  0  0  0  0  0  0  0  0  0  0  0
   -3.9110    0.6799    0.0000 C   0  0  0  0  0  0  0  0  0  0  0  0
    0.3990   -4.6749    0.0000 C   0  0  0  0  0  0  0  0  0  0  0  0
    2.9749    4.3315    0.0000 C   0  0  0  0  0  0  0  0  0  0  0  0
    6.4887   -2.2945    0.0000 C   0  0  0  0  0  0  0  0  0  0  0  0
    0.7731    5.7106    0.0000 C   0  0  0  0  0  0  0  0  0  0  0  0
    5.0832    0.3559    0.0000 C   0  0  0  0  0  0  0  0  0  0  0  0
    4.4740    4.2775    0.0000 C   0  0  0  0  0  0  0  0  0  0  0  0
    7.1914   -3.6197    0.0000 C   0  0  0  0  0  0  0  0  0  0  0  0
    5.2702    5.5487    0.0000 C   0  0  0  0  0  0  0  0  0  0  0  0
    8.6905   -3.6737    0.0000 C   0  0  0  0  0  0  0  0  0  0  0  0
    5.1767    2.9523    0.0000 C   0  0  0  0  0  0  0  0  0  0  0  0
    6.6757    2.8983    0.0000 C   0  0  0  0  0  0  0  0  0  0  0  0
    9.3932   -4.9989    0.0000 C   0  0  0  0  0  0  0  0  0  0  0  0
    9.4867   -2.4025    0.0000 C   0  0  0  0  0  0  0  0  0  0  0  0
  1 39  1  0
  2  4  1  0
  2  8  1  0
  3  7  1  0
  3  9  1  0
  4 15  1  0
  5  6  1  0
  5 10  1  0
  6 16  1  0
  7 18  1  0
  8 16  2  3
  8 23  1  0
  9 15  2  3
  9 25  1  0
 10 19  2  3
 10 28  1  0
 11 13  1  0
 11 17  1  0
 12 14  1  0
 12 19  1  0
 13 18  2  3
 13 29  1  0
 14 20  1  0
 17 21  1  0
 20 27  2  3
 20 32  1  0
 21 22  2  3
 22 24  1  0
 22 33  1  0
 24 31  1  0
 26 27  1  0
 26 30  1  0
 30 34  1  0
 31 35  1  0
 34 36  1  0
 34 38  2  3
 35 37  2  3
 37 40  1  0
 37 41  1  0
 38 39  1  0
M  END
>  <PUBCHEM_COMPOUND_CID>  (1) 
707

>  <PUBCHEM_COMPOUND_CANONICALIZED>  (1) 
1

>  <PUBCHEM_CACTVS_COMPLEXITY>  (1) 
951

>  <PUBCHEM_CACTVS_HBOND_ACCEPTOR>  (1) 
1

>  <PUBCHEM_CACTVS_HBOND_DONOR>  (1) 
1

>  <PUBCHEM_CACTVS_ROTATABLE_BOND>  (1) 
22

>  <PUBCHEM_CACTVS_SUBSKEYS>  (1) 
AAADcfB8IAAAAAAAAAAAAAAAAAAAAAAAAAAAAAAAAAAAAAAAAAAAGgAACAAADACggAICAAAAAgCAAiBCAAAAAAAgAAAACAAAAAgAFAIAAQAAEAAAgAAIEAIAAAAAAAAAAAAAAAAAAAAAAAAAAAAAAAAAAA==

>  <PUBCHEM_IUPAC_OPENEYE_NAME>  (1) 
3,7,11,15,19,23,27,31-octamethyldotriaconta-2,6,10,14,18,22,26,30-octaen-1-ol

>  <PUBCHEM_IUPAC_CAS_NAME>  (1) 
3,7,11,15,19,23,27,31-octamethyl-1-dotriaconta-2,6,10,14,18,22,26,30-octaenol

>  <PUBCHEM_IUPAC_NAME_MARKUP>  (1) 
3,7,11,15,19,23,27,31-octamethyldotriaconta-2,6,10,14,18,22,26,30-octaen-1-ol

>  <PUBCHEM_IUPAC_NAME>  (1) 
3,7,11,15,19,23,27,31-octamethyldotriaconta-2,6,10,14,18,22,26,30-octaen-1-ol

>  <PUBCHEM_IUPAC_SYSTEMATIC_NAME>  (1) 
3,7,11,15,19,23,27,31-octamethyldotriaconta-2,6,10,14,18,22,26,30-octaen-1-ol

>  <PUBCHEM_IUPAC_TRADITIONAL_NAME>  (1) 
3,7,11,15,19,23,27,31-octamethyldotriaconta-2,6,10,14,18,22,26,30-octaen-1-ol

>  <PUBCHEM_IUPAC_INCHI>  (1) 
InChI=1S/C40H66O/c1-33(2)17-10-18-34(3)19-11-20-35(4)21-12-22-36(5)23-13-24-37(6)25-14-26-38(7)27-15-28-39(8)29-16-30-40(9)31-32-41/h17,19,21,23,25,27,29,31,41H,10-16,18,20,22,24,26,28,30,32H2,1-9H3

>  <PUBCHEM_IUPAC_INCHIKEY>  (1) 
BZORESSIXXHLNB-UHFFFAOYSA-N

>  <PUBCHEM_XLOGP3_AA>  (1) 
14

>  <PUBCHEM_EXACT_MASS>  (1) 
562.511367

>  <PUBCHEM_MOLECULAR_FORMULA>  (1) 
C40H66O

>  <PUBCHEM_MOLECULAR_WEIGHT>  (1) 
562.9

>  <PUBCHEM_OPENEYE_CAN_SMILES>  (1) 
CC(=CCCC(=CCCC(=CCCC(=CCCC(=CCCC(=CCCC(=CCCC(=CCO)C)C)C)C)C)C)C)C

>  <PUBCHEM_OPENEYE_ISO_SMILES>  (1) 
CC(=CCCC(=CCCC(=CCCC(=CCCC(=CCCC(=CCCC(=CCCC(=CCO)C)C)C)C)C)C)C)C

>  <PUBCHEM_CACTVS_TPSA>  (1) 
20.2

>  <PUBCHEM_MONOISOTOPIC_WEIGHT>  (1) 
562.511367

>  <PUBCHEM_TOTAL_CHARGE>  (1) 
0

>  <PUBCHEM_HEAVY_ATOM_COUNT>  (1) 
41

>  <PUBCHEM_ATOM_DEF_STEREO_COUNT>  (1) 
0

>  <PUBCHEM_ATOM_UDEF_STEREO_COUNT>  (1) 
0

>  <PUBCHEM_BOND_DEF_STEREO_COUNT>  (1) 
0

>  <PUBCHEM_BOND_UDEF_STEREO_COUNT>  (1) 
7

>  <PUBCHEM_ISOTOPIC_ATOM_COUNT>  (1) 
0

>  <PUBCHEM_COMPONENT_COUNT>  (1) 
1

>  <PUBCHEM_CACTVS_TAUTO_COUNT>  (1) 
-1

>  <PUBCHEM_COORDINATE_TYPE>  (1) 
1
5
255

>  <PUBCHEM_BONDANNOTATIONS>  (1) 
10  19  1
13  18  1
20  27  1
21  22  1
34  38  1
8  16  1
9  15  1

$$$$
