709
     RDKit          2D

 14 14  0  0  0  0  0  0  0  0999 V2000
    2.7382    1.9163    0.0000 O   0  0  0  0  0  0  0  0  0  0  0  0
    4.3786   -0.5955    0.0000 O   0  0  0  0  0  0  0  0  0  0  0  0
   -4.7505    1.5043    0.0000 O   0  0  0  0  0  0  0  0  0  0  0  0
   -4.6078   -1.0898    0.0000 O   0  0  0  0  0  0  0  0  0  0  0  0
   -0.1146   -0.8427    0.0000 C   0  0  0  0  0  0  0  0  0  0  0  0
    2.0606    0.5780    0.0000 C   0  0  0  0  0  0  0  0  0  0  0  0
    0.5629    0.4956    0.0000 C   0  0  0  0  0  0  0  0  0  0  0  0
    0.7056   -2.0985    0.0000 C   0  0  0  0  0  0  0  0  0  0  0  0
    2.8809   -0.6779    0.0000 C   0  0  0  0  0  0  0  0  0  0  0  0
    2.2034   -2.0162    0.0000 C   0  0  0  0  0  0  0  0  0  0  0  0
   -1.6123   -0.9251    0.0000 C   0  0  0  0  0  0  0  0  0  0  0  0
   -2.4326    0.3308    0.0000 C   0  0  0  0  0  0  0  0  0  0  0  0
    1.9179    3.1722    0.0000 C   0  0  0  0  0  0  0  0  0  0  0  0
   -3.9303    0.2484    0.0000 C   0  0  0  0  0  0  0  0  0  0  0  0
  1  6  1  0
  1 13  1  0
  2  9  1  0
  3 14  1  0
  4 14  2  0
  5  7  2  0
  5  8  1  0
  5 11  1  0
  6  7  1  0
  6  9  2  0
  8 10  2  0
  9 10  1  0
 11 12  2  3
 12 14  1  0
M  END
>  <PUBCHEM_COMPOUND_CID>  (1) 
709

>  <PUBCHEM_COMPOUND_CANONICALIZED>  (1) 
1

>  <PUBCHEM_CACTVS_COMPLEXITY>  (1) 
224

>  <PUBCHEM_CACTVS_HBOND_ACCEPTOR>  (1) 
4

>  <PUBCHEM_CACTVS_HBOND_DONOR>  (1) 
2

>  <PUBCHEM_CACTVS_ROTATABLE_BOND>  (1) 
3

>  <PUBCHEM_CACTVS_SUBSKEYS>  (1) 
AAADccBwOAAAAAAAAAAAAAAAAAAAAAAAAAAwAAAAAAAAAAABAAAAGgAACAAADASAmAIyDoAABgCIAiDSCAACCAAgIAAIiAAGiMgNJiKGMRqAcCMkwBELuYeAwBAOIAABAAAAQABAAAIAAACAAAAAAAAAAA==

>  <PUBCHEM_IUPAC_OPENEYE_NAME>  (1) 
3-(4-hydroxy-3-methoxy-phenyl)prop-2-enoic acid

>  <PUBCHEM_IUPAC_CAS_NAME>  (1) 
3-(4-hydroxy-3-methoxyphenyl)-2-propenoic acid

>  <PUBCHEM_IUPAC_NAME_MARKUP>  (1) 
3-(4-hydroxy-3-methoxyphenyl)prop-2-enoic acid

>  <PUBCHEM_IUPAC_NAME>  (1) 
3-(4-hydroxy-3-methoxyphenyl)prop-2-enoic acid

>  <PUBCHEM_IUPAC_SYSTEMATIC_NAME>  (1) 
3-(3-methoxy-4-oxidanyl-phenyl)prop-2-enoic acid

>  <PUBCHEM_IUPAC_TRADITIONAL_NAME>  (1) 
ferulic acid

>  <PUBCHEM_IUPAC_INCHI>  (1) 
InChI=1S/C10H10O4/c1-14-9-6-7(2-4-8(9)11)3-5-10(12)13/h2-6,11H,1H3,(H,12,13)

>  <PUBCHEM_IUPAC_INCHIKEY>  (1) 
KSEBMYQBYZTDHS-UHFFFAOYSA-N

>  <PUBCHEM_XLOGP3>  (1) 
1.5

>  <PUBCHEM_EXACT_MASS>  (1) 
194.057909

>  <PUBCHEM_MOLECULAR_FORMULA>  (1) 
C10H10O4

>  <PUBCHEM_MOLECULAR_WEIGHT>  (1) 
194.18

>  <PUBCHEM_OPENEYE_CAN_SMILES>  (1) 
COC1=C(C=CC(=C1)C=CC(=O)O)O

>  <PUBCHEM_OPENEYE_ISO_SMILES>  (1) 
COC1=C(C=CC(=C1)C=CC(=O)O)O

>  <PUBCHEM_CACTVS_TPSA>  (1) 
66.8

>  <PUBCHEM_MONOISOTOPIC_WEIGHT>  (1) 
194.057909

>  <PUBCHEM_TOTAL_CHARGE>  (1) 
0

>  <PUBCHEM_HEAVY_ATOM_COUNT>  (1) 
14

>  <PUBCHEM_ATOM_DEF_STEREO_COUNT>  (1) 
0

>  <PUBCHEM_ATOM_UDEF_STEREO_COUNT>  (1) 
0

>  <PUBCHEM_BOND_DEF_STEREO_COUNT>  (1) 
0

>  <PUBCHEM_BOND_UDEF_STEREO_COUNT>  (1) 
1

>  <PUBCHEM_ISOTOPIC_ATOM_COUNT>  (1) 
0

>  <PUBCHEM_COMPONENT_COUNT>  (1) 
1

>  <PUBCHEM_CACTVS_TAUTO_COUNT>  (1) 
-1

>  <PUBCHEM_COORDINATE_TYPE>  (1) 
1
5
255

>  <PUBCHEM_BONDANNOTATIONS>  (1) 
11  12  1
5  7  8
5  8  8
6  7  8
6  9  8
8  10  8
9  10  8

$$$$
