710
     RDKit          2D

 31 33  0  0  1  0  0  0  0  0999 V2000
   -7.4149   -0.8066    0.0000 P   0  0  0  0  0  0  0  0  0  0  0  0
   -0.8322    1.1726    0.0000 O   0  0  0  0  0  0  0  0  0  0  0  0
   -2.2854   -2.5204    0.0000 O   0  0  0  0  0  0  0  0  0  0  0  0
   -3.4280    1.2801    0.0000 O   0  0  0  0  0  0  0  0  0  0  0  0
   -6.0860   -0.1110    0.0000 O   0  0  0  0  0  0  0  0  0  0  0  0
    6.8933   -0.6489    0.0000 O   0  0  0  0  0  0  0  0  0  0  0  0
    4.1111   -5.0374    0.0000 O   0  0  0  0  0  0  0  0  0  0  0  0
   -6.7194   -2.1356    0.0000 O   0  0  0  0  0  0  0  0  0  0  0  0
   -8.7439   -1.5021    0.0000 O   0  0  0  0  0  0  0  0  0  0  0  0
   -8.1105    0.5224    0.0000 O   0  0  0  0  0  0  0  0  0  0  0  0
    1.7016   -0.4337    0.0000 N   0  0  0  0  0  0  0  0  0  0  0  0
    4.3595    0.9574    0.0000 N   0  0  0  0  0  0  0  0  0  0  0  0
    2.9063   -2.7356    0.0000 N   0  0  0  0  0  0  0  0  0  0  0  0
    5.5022   -2.8432    0.0000 N   0  0  0  0  0  0  0  0  0  0  0  0
   -0.8943   -0.3262    0.0000 C   0  0  0  0  0  0  0  0  0  0  0  0
   -2.2232   -1.0217    0.0000 C   0  0  0  0  0  0  0  0  0  0  0  0
    0.3726   -1.1293    0.0000 C   0  0  0  0  0  0  0  0  0  0  0  0
   -3.4901   -0.2186    0.0000 C   0  0  0  0  0  0  0  0  0  0  0  0
    1.7637    1.0650    0.0000 C   0  0  0  0  0  0  0  0  0  0  0  0
    2.9685   -1.2369    0.0000 C   0  0  0  0  0  0  0  0  0  0  0  0
    3.0927    1.7606    0.0000 C   0  0  0  0  0  0  0  0  0  0  0  0
   -4.8191   -0.9142    0.0000 C   0  0  0  0  0  0  0  0  0  0  0  0
    0.4968    1.8681    0.0000 C   0  0  0  0  0  0  0  0  0  0  0  0
    4.2974   -0.5413    0.0000 C   0  0  0  0  0  0  0  0  0  0  0  0
    0.5589    3.3668    0.0000 C   0  0  0  0  0  0  0  0  0  0  0  0
    3.1548    3.2593    0.0000 C   0  0  0  0  0  0  0  0  0  0  0  0
    1.8879    4.0624    0.0000 C   0  0  0  0  0  0  0  0  0  0  0  0
    5.5643   -1.3444    0.0000 C   0  0  0  0  0  0  0  0  0  0  0  0
   -0.7079    4.1700    0.0000 C   0  0  0  0  0  0  0  0  0  0  0  0
    1.9500    5.5611    0.0000 C   0  0  0  0  0  0  0  0  0  0  0  0
    4.1732   -3.5387    0.0000 C   0  0  0  0  0  0  0  0  0  0  0  0
  1  5  1  0
  1  8  1  0
  1  9  1  0
  1 10  2  0
  2 15  1  0
  3 16  1  0
  4 18  1  0
  5 22  1  0
  6 28  2  0
  7 31  2  0
 11 17  1  0
 11 19  1  0
 11 20  1  0
 12 21  1  0
 12 24  2  0
 13 20  2  0
 13 31  1  0
 14 28  1  0
 14 31  1  0
 15 16  1  0
 15 17  1  0
 16 18  1  0
 18 22  1  0
 19 21  2  0
 19 23  1  0
 20 24  1  0
 21 26  1  0
 23 25  2  0
 24 28  1  0
 25 27  1  0
 25 29  1  0
 26 27  2  0
 27 30  1  0
M  END
>  <PUBCHEM_COMPOUND_CID>  (1) 
710

>  <PUBCHEM_COMPOUND_CANONICALIZED>  (1) 
1

>  <PUBCHEM_CACTVS_COMPLEXITY>  (1) 
844

>  <PUBCHEM_CACTVS_HBOND_ACCEPTOR>  (1) 
10

>  <PUBCHEM_CACTVS_HBOND_DONOR>  (1) 
6

>  <PUBCHEM_CACTVS_ROTATABLE_BOND>  (1) 
7

>  <PUBCHEM_CACTVS_SUBSKEYS>  (1) 
AAADceB7vAIAAAAAAAAAAAAAAAAAAAAAAAAwQIAAAAAAAACBAAAAHgAQCCAADBzhmAYzwIPAAxCoQydydICCAAEhAgABiAEodIiLcCrA2ZGUYAhnhSLZyAfwkIIOiAAAQAAQACAQAACAACAAQAAAAAAAAA==

>  <PUBCHEM_IUPAC_OPENEYE_NAME>  (1) 
[5-(7,8-dimethyl-2,4-dioxo-benzo[g]pteridin-10-yl)-2,3,4-trihydroxy-pentyl] dihydrogen phosphate

>  <PUBCHEM_IUPAC_CAS_NAME>  (1) 
[5-(7,8-dimethyl-2,4-dioxo-10-benzo[g]pteridinyl)-2,3,4-trihydroxypentyl] dihydrogen phosphate

>  <PUBCHEM_IUPAC_NAME_MARKUP>  (1) 
[5-(7,8-dimethyl-2,4-dioxobenzo[g]pteridin-10-yl)-2,3,4-trihydroxypentyl] dihydrogen phosphate

>  <PUBCHEM_IUPAC_NAME>  (1) 
[5-(7,8-dimethyl-2,4-dioxobenzo[g]pteridin-10-yl)-2,3,4-trihydroxypentyl] dihydrogen phosphate

>  <PUBCHEM_IUPAC_SYSTEMATIC_NAME>  (1) 
[5-[7,8-dimethyl-2,4-bis(oxidanylidene)benzo[g]pteridin-10-yl]-2,3,4-tris(oxidanyl)pentyl] dihydrogen phosphate

>  <PUBCHEM_IUPAC_TRADITIONAL_NAME>  (1) 
[5-(2,4-diketo-7,8-dimethyl-benzo[g]pteridin-10-yl)-2,3,4-trihydroxy-pentyl] dihydrogen phosphate

>  <PUBCHEM_IUPAC_INCHI>  (1) 
InChI=1S/C17H21N4O9P/c1-7-3-9-10(4-8(7)2)21(15-13(18-9)16(25)20-17(26)19-15)5-11(22)14(24)12(23)6-30-31(27,28)29/h3-4,11-12,14,22-24H,5-6H2,1-2H3,(H,20,25,26)(H2,27,28,29)

>  <PUBCHEM_IUPAC_INCHIKEY>  (1) 
FVTCRASFADXXNN-UHFFFAOYSA-N

>  <PUBCHEM_XLOGP3>  (1) 
-2.6

>  <PUBCHEM_EXACT_MASS>  (1) 
456.104615

>  <PUBCHEM_MOLECULAR_FORMULA>  (1) 
C17H21N4O9P

>  <PUBCHEM_MOLECULAR_WEIGHT>  (1) 
456.3

>  <PUBCHEM_OPENEYE_CAN_SMILES>  (1) 
CC1=CC2=C(C=C1C)N(C3=NC(=O)NC(=O)C3=N2)CC(C(C(COP(=O)(O)O)O)O)O

>  <PUBCHEM_OPENEYE_ISO_SMILES>  (1) 
CC1=CC2=C(C=C1C)N(C3=NC(=O)NC(=O)C3=N2)CC(C(C(COP(=O)(O)O)O)O)O

>  <PUBCHEM_CACTVS_TPSA>  (1) 
202

>  <PUBCHEM_MONOISOTOPIC_WEIGHT>  (1) 
456.104615

>  <PUBCHEM_TOTAL_CHARGE>  (1) 
0

>  <PUBCHEM_HEAVY_ATOM_COUNT>  (1) 
31

>  <PUBCHEM_ATOM_DEF_STEREO_COUNT>  (1) 
0

>  <PUBCHEM_ATOM_UDEF_STEREO_COUNT>  (1) 
3

>  <PUBCHEM_BOND_DEF_STEREO_COUNT>  (1) 
0

>  <PUBCHEM_BOND_UDEF_STEREO_COUNT>  (1) 
0

>  <PUBCHEM_ISOTOPIC_ATOM_COUNT>  (1) 
0

>  <PUBCHEM_COMPONENT_COUNT>  (1) 
1

>  <PUBCHEM_CACTVS_TAUTO_COUNT>  (1) 
-1

>  <PUBCHEM_COORDINATE_TYPE>  (1) 
1
5
255

>  <PUBCHEM_BONDANNOTATIONS>  (1) 
11  19  8
11  20  8
12  21  8
12  24  8
13  20  8
13  31  8
14  28  8
14  31  8
19  21  8
19  23  8
15  2  3
21  26  8
23  25  8
24  28  8
25  27  8
26  27  8
16  3  3
18  4  3

$$$$
