715
     RDKit          2D

 55 56  0  0  1  0  0  0  0  0999 V2000
    6.1355    4.9873    0.0000 O   0  0  0  0  0  0  0  0  0  0  0  0
   11.5423    5.1159    0.0000 O   0  0  0  0  0  0  0  0  0  0  0  0
    5.5716    2.4511    0.0000 O   0  0  0  0  0  0  0  0  0  0  0  0
   10.9784    2.5798    0.0000 O   0  0  0  0  0  0  0  0  0  0  0  0
    9.4005   -1.0617    0.0000 O   0  0  0  0  0  0  0  0  0  0  0  0
   10.1917    9.4085    0.0000 O   0  0  0  0  0  0  0  0  0  0  0  0
    7.7134    8.6287    0.0000 O   0  0  0  0  0  0  0  0  0  0  0  0
    9.8507   -2.4925    0.0000 O   0  0  0  0  0  0  0  0  0  0  0  0
    9.2868   -5.0287    0.0000 O   0  0  0  0  0  0  0  0  0  0  0  0
    4.3302   -6.5881    0.0000 O   0  0  0  0  0  0  0  0  0  0  0  0
    3.3161   -7.6934    0.0000 O   0  0  0  0  0  0  0  0  0  0  0  0
    0.8378   -8.4732    0.0000 O   0  0  0  0  0  0  0  0  0  0  0  0
   -2.9910   -4.9604    0.0000 O   0  0  0  0  0  0  0  0  0  0  0  0
  -10.1986    0.6344    0.0000 O   0  0  0  0  0  0  0  0  0  0  0  0
  -14.2035    3.6239    0.0000 O   0  0  0  0  0  0  0  0  0  0  0  0
  -19.6914    2.7510    0.0000 O   0  0  0  0  0  0  0  0  0  0  0  0
    6.9222   -1.8414    0.0000 N   0  0  0  0  0  0  0  0  0  0  0  0
    2.4158   -4.8317    0.0000 N   0  0  0  0  0  0  0  0  0  0  0  0
   -2.4272   -2.4242    0.0000 N   0  0  0  0  0  0  0  0  0  0  0  0
  -17.1102    2.4553    0.0000 N   0  0  0  0  0  0  0  0  0  0  0  0
    8.0499    3.2309    0.0000 C   0  0  0  0  0  0  0  0  0  0  0  0
    9.0640    4.3362    0.0000 C   0  0  0  0  0  0  0  0  0  0  0  0
    8.5001    1.8000    0.0000 C   0  0  0  0  0  0  0  0  0  0  0  0
    8.6138    5.7670    0.0000 C   0  0  0  0  0  0  0  0  0  0  0  0
    7.4860    0.6947    0.0000 C   0  0  0  0  0  0  0  0  0  0  0  0
    9.6278    6.8723    0.0000 C   0  0  0  0  0  0  0  0  0  0  0  0
    6.5857    3.5564    0.0000 C   0  0  0  0  0  0  0  0  0  0  0  0
   10.5282    4.0106    0.0000 C   0  0  0  0  0  0  0  0  0  0  0  0
    7.9362   -0.7361    0.0000 C   0  0  0  0  0  0  0  0  0  0  0  0
    7.3724   -3.2723    0.0000 C   0  0  0  0  0  0  0  0  0  0  0  0
    6.3583   -4.3776    0.0000 C   0  0  0  0  0  0  0  0  0  0  0  0
    4.8941   -4.0520    0.0000 C   0  0  0  0  0  0  0  0  0  0  0  0
    9.1777    8.3032    0.0000 C   0  0  0  0  0  0  0  0  0  0  0  0
    1.4017   -5.9370    0.0000 C   0  0  0  0  0  0  0  0  0  0  0  0
    8.8366   -3.5978    0.0000 C   0  0  0  0  0  0  0  0  0  0  0  0
    3.8800   -5.1573    0.0000 C   0  0  0  0  0  0  0  0  0  0  0  0
   -0.0626   -5.6115    0.0000 C   0  0  0  0  0  0  0  0  0  0  0  0
   -0.5127   -4.1806    0.0000 C   0  0  0  0  0  0  0  0  0  0  0  0
    1.8519   -7.3679    0.0000 C   0  0  0  0  0  0  0  0  0  0  0  0
   -1.9770   -3.8551    0.0000 C   0  0  0  0  0  0  0  0  0  0  0  0
   -3.8914   -2.0987    0.0000 C   0  0  0  0  0  0  0  0  0  0  0  0
   -4.3416   -0.6678    0.0000 C   0  0  0  0  0  0  0  0  0  0  0  0
   -5.8059   -0.3423    0.0000 C   0  0  0  0  0  0  0  0  0  0  0  0
   -6.8199   -1.4476    0.0000 C   0  0  0  0  0  0  0  0  0  0  0  0
   -6.2560    1.0886    0.0000 C   0  0  0  0  0  0  0  0  0  0  0  0
   -8.7343    0.3088    0.0000 C   0  0  0  0  0  0  0  0  0  0  0  0
   -8.2842   -1.1220    0.0000 C   0  0  0  0  0  0  0  0  0  0  0  0
   -7.7203    1.4141    0.0000 C   0  0  0  0  0  0  0  0  0  0  0  0
  -10.6488    2.0652    0.0000 C   0  0  0  0  0  0  0  0  0  0  0  0
  -12.1130    2.3908    0.0000 C   0  0  0  0  0  0  0  0  0  0  0  0
  -13.2371    1.3975    0.0000 C   0  0  0  0  0  0  0  0  0  0  0  0
  -14.5290    2.1596    0.0000 C   0  0  0  0  0  0  0  0  0  0  0  0
  -12.7103    3.7667    0.0000 C   0  0  0  0  0  0  0  0  0  0  0  0
  -15.9050    1.5623    0.0000 C   0  0  0  0  0  0  0  0  0  0  0  0
  -18.4862    1.8580    0.0000 C   0  0  0  0  0  0  0  0  0  0  0  0
  1 27  1  0
  2 28  1  0
  3 27  2  0
  4 28  2  0
  5 29  2  0
  6 33  1  0
  7 33  2  0
  8 35  1  0
  9 35  2  0
 10 36  2  0
 11 39  1  0
 12 39  2  0
 13 40  2  0
 14 46  1  0
 14 49  1  0
 15 52  1  0
 15 53  1  0
 16 55  2  0
 17 29  1  0
 17 30  1  0
 18 34  1  0
 18 36  1  0
 19 40  1  0
 19 41  1  0
 20 54  1  0
 20 55  1  0
 21 22  1  0
 21 23  1  0
 21 27  1  0
 22 24  1  0
 22 28  1  0
 23 25  1  0
 24 26  1  0
 25 29  1  0
 26 33  1  0
 30 31  1  0
 30 35  1  0
 31 32  1  0
 32 36  1  0
 34 37  1  0
 34 39  1  0
 37 38  1  0
 38 40  1  0
 41 42  1  0
 42 43  1  0
 43 44  2  0
 43 45  1  0
 44 47  1  0
 45 48  2  0
 46 47  2  0
 46 48  1  0
 49 50  1  0
 50 51  1  0
 50 53  2  0
 51 52  2  0
 52 54  1  0
M  END
>  <PUBCHEM_COMPOUND_CID>  (1) 
715

>  <PUBCHEM_COMPOUND_CANONICALIZED>  (1) 
1

>  <PUBCHEM_CACTVS_COMPLEXITY>  (1) 
1340

>  <PUBCHEM_CACTVS_HBOND_ACCEPTOR>  (1) 
16

>  <PUBCHEM_CACTVS_HBOND_DONOR>  (1) 
9

>  <PUBCHEM_CACTVS_ROTATABLE_BOND>  (1) 
27

>  <PUBCHEM_CACTVS_SUBSKEYS>  (1) 
AAADcfB/vgAAAAAAAAAAAAAAAAAAASAAAAAwAAAAAAAAAAABwAAAHgAQCAAADSzhmAYwDoLABkCIAqnSmACCCAAkIAAIiIGODMgOJzaEtTuHeSjl9hGYqYff/7KOoAAAAAAAAABAAAAAAAAAAAAAAAAAAA==

>  <PUBCHEM_IUPAC_OPENEYE_NAME>  (1) 
7-[[1-carboxy-4-[[1-carboxy-4-[2-[4-[[5-(formamidomethyl)-3-furyl]methoxy]phenyl]ethylamino]-4-oxo-butyl]amino]-4-oxo-butyl]amino]-7-oxo-heptane-1,3,4-tricarboxylic acid

>  <PUBCHEM_IUPAC_CAS_NAME>  (1) 
7-[[1-carboxy-4-[[1-carboxy-4-[2-[4-[[5-(formamidomethyl)-3-furanyl]methoxy]phenyl]ethylamino]-4-oxobutyl]amino]-4-oxobutyl]amino]-7-oxoheptane-1,3,4-tricarboxylic acid

>  <PUBCHEM_IUPAC_NAME_MARKUP>  (1) 
7-[[1-carboxy-4-[[1-carboxy-4-[2-[4-[[5-(formamidomethyl)furan-3-yl]methoxy]phenyl]ethylamino]-4-oxobutyl]amino]-4-oxobutyl]amino]-7-oxoheptane-1,3,4-tricarboxylic acid

>  <PUBCHEM_IUPAC_NAME>  (1) 
7-[[1-carboxy-4-[[1-carboxy-4-[2-[4-[[5-(formamidomethyl)furan-3-yl]methoxy]phenyl]ethylamino]-4-oxobutyl]amino]-4-oxobutyl]amino]-7-oxoheptane-1,3,4-tricarboxylic acid

>  <PUBCHEM_IUPAC_SYSTEMATIC_NAME>  (1) 
7-[[5-[[5-[2-[4-[[5-(formamidomethyl)furan-3-yl]methoxy]phenyl]ethylamino]-1-oxidanyl-1,5-bis(oxidanylidene)pentan-2-yl]amino]-1-oxidanyl-1,5-bis(oxidanylidene)pentan-2-yl]amino]-7-oxidanylidene-heptane-1,3,4-tricarboxylic acid

>  <PUBCHEM_IUPAC_TRADITIONAL_NAME>  (1) 
7-[[1-carboxy-4-[[1-carboxy-4-[2-[4-[[5-(formamidomethyl)-3-furyl]methoxy]phenyl]ethylamino]-4-keto-butyl]amino]-4-keto-butyl]amino]-7-keto-heptane-1,3,4-tricarboxylic acid

>  <PUBCHEM_IUPAC_INCHI>  (1) 
InChI=1S/C35H44N4O16/c40-19-36-16-23-15-21(18-55-23)17-54-22-3-1-20(2-4-22)13-14-37-28(41)10-7-26(34(50)51)39-30(43)11-8-27(35(52)53)38-29(42)9-5-24(32(46)47)25(33(48)49)6-12-31(44)45/h1-4,15,18-19,24-27H,5-14,16-17H2,(H,36,40)(H,37,41)(H,38,42)(H,39,43)(H,44,45)(H,46,47)(H,48,49)(H,50,51)(H,52,53)

>  <PUBCHEM_IUPAC_INCHIKEY>  (1) 
RGBIJPWAWLXPOC-UHFFFAOYSA-N

>  <PUBCHEM_XLOGP3_AA>  (1) 
-1.1

>  <PUBCHEM_EXACT_MASS>  (1) 
776.275231

>  <PUBCHEM_MOLECULAR_FORMULA>  (1) 
C35H44N4O16

>  <PUBCHEM_MOLECULAR_WEIGHT>  (1) 
776.7

>  <PUBCHEM_OPENEYE_CAN_SMILES>  (1) 
C1=CC(=CC=C1CCNC(=O)CCC(C(=O)O)NC(=O)CCC(C(=O)O)NC(=O)CCC(C(CCC(=O)O)C(=O)O)C(=O)O)OCC2=COC(=C2)CNC=O

>  <PUBCHEM_OPENEYE_ISO_SMILES>  (1) 
C1=CC(=CC=C1CCNC(=O)CCC(C(=O)O)NC(=O)CCC(C(=O)O)NC(=O)CCC(C(CCC(=O)O)C(=O)O)C(=O)O)OCC2=COC(=C2)CNC=O

>  <PUBCHEM_CACTVS_TPSA>  (1) 
325

>  <PUBCHEM_MONOISOTOPIC_WEIGHT>  (1) 
776.275231

>  <PUBCHEM_TOTAL_CHARGE>  (1) 
0

>  <PUBCHEM_HEAVY_ATOM_COUNT>  (1) 
55

>  <PUBCHEM_ATOM_DEF_STEREO_COUNT>  (1) 
0

>  <PUBCHEM_ATOM_UDEF_STEREO_COUNT>  (1) 
4

>  <PUBCHEM_BOND_DEF_STEREO_COUNT>  (1) 
0

>  <PUBCHEM_BOND_UDEF_STEREO_COUNT>  (1) 
0

>  <PUBCHEM_ISOTOPIC_ATOM_COUNT>  (1) 
0

>  <PUBCHEM_COMPONENT_COUNT>  (1) 
1

>  <PUBCHEM_CACTVS_TAUTO_COUNT>  (1) 
-1

>  <PUBCHEM_COORDINATE_TYPE>  (1) 
1
5
255

>  <PUBCHEM_BONDANNOTATIONS>  (1) 
15  52  8
15  53  8
21  23  3
22  24  3
30  31  3
34  37  3
43  44  8
43  45  8
44  47  8
45  48  8
46  47  8
46  48  8
50  51  8
50  53  8
51  52  8

$$$$
