716
     RDKit          2D

 12 12  0  0  1  0  0  0  0  0999 V2000
   -0.4085   -1.1581    0.0000 O   0  0  0  0  0  0  0  0  0  0  0  0
    1.7350    2.0778    0.0000 O   0  0  0  0  0  0  0  0  0  0  0  0
    1.4698   -1.8664    0.0000 O   0  0  0  0  0  0  0  0  0  0  0  0
   -1.4911    2.5692    0.0000 O   0  0  0  0  0  0  0  0  0  0  0  0
    3.4375   -1.1269    0.0000 O   0  0  0  0  0  0  0  0  0  0  0  0
   -3.4848   -1.7507    0.0000 O   0  0  0  0  0  0  0  0  0  0  0  0
    0.6806    1.0109    0.0000 C   0  0  0  0  0  0  0  0  0  0  0  0
    0.9240   -0.4693    0.0000 C   0  0  0  0  0  0  0  0  0  0  0  0
   -0.8023    1.2368    0.0000 C   0  0  0  0  0  0  0  0  0  0  0  0
   -1.4754   -0.1037    0.0000 C   0  0  0  0  0  0  0  0  0  0  0  0
    2.3706   -0.0725    0.0000 C   0  0  0  0  0  0  0  0  0  0  0  0
   -2.9555   -0.3471    0.0000 C   0  0  0  0  0  0  0  0  0  0  0  0
  1  8  1  0
  1 10  1  0
  2  7  1  0
  3  8  1  0
  4  9  1  0
  5 11  1  0
  6 12  1  0
  7  8  1  0
  7  9  1  0
  8 11  1  0
  9 10  1  0
 10 12  1  0
M  END
>  <PUBCHEM_COMPOUND_CID>  (1) 
716

>  <PUBCHEM_COMPOUND_CANONICALIZED>  (1) 
1

>  <PUBCHEM_CACTVS_COMPLEXITY>  (1) 
162

>  <PUBCHEM_CACTVS_HBOND_ACCEPTOR>  (1) 
6

>  <PUBCHEM_CACTVS_HBOND_DONOR>  (1) 
5

>  <PUBCHEM_CACTVS_ROTATABLE_BOND>  (1) 
2

>  <PUBCHEM_CACTVS_SUBSKEYS>  (1) 
AAADccBgOAAAAAAAAAAAAAAAAAAAASAAAAAAAAAAAAAAAAAAAAAAGgAACAAACBSggAIACAAABgAAAAAAAAAAAAAAAAAAAAAAAAAREAIAAAACQAAFAAAHAAHAYAQAAAAAAAAAAAAAAAAAAAAAAAAAAAAAAA==

>  <PUBCHEM_IUPAC_OPENEYE_NAME>  (1) 
2,5-bis(hydroxymethyl)tetrahydrofuran-2,3,4-triol

>  <PUBCHEM_IUPAC_CAS_NAME>  (1) 
2,5-bis(hydroxymethyl)oxolane-2,3,4-triol

>  <PUBCHEM_IUPAC_NAME_MARKUP>  (1) 
2,5-bis(hydroxymethyl)oxolane-2,3,4-triol

>  <PUBCHEM_IUPAC_NAME>  (1) 
2,5-bis(hydroxymethyl)oxolane-2,3,4-triol

>  <PUBCHEM_IUPAC_SYSTEMATIC_NAME>  (1) 
2,5-bis(hydroxymethyl)oxolane-2,3,4-triol

>  <PUBCHEM_IUPAC_TRADITIONAL_NAME>  (1) 
2,5-dimethyloltetrahydrofuran-2,3,4-triol

>  <PUBCHEM_IUPAC_INCHI>  (1) 
InChI=1S/C6H12O6/c7-1-3-4(9)5(10)6(11,2-8)12-3/h3-5,7-11H,1-2H2

>  <PUBCHEM_IUPAC_INCHIKEY>  (1) 
RFSUNEUAIZKAJO-UHFFFAOYSA-N

>  <PUBCHEM_XLOGP3_AA>  (1) 
-2.3

>  <PUBCHEM_EXACT_MASS>  (1) 
180.063388

>  <PUBCHEM_MOLECULAR_FORMULA>  (1) 
C6H12O6

>  <PUBCHEM_MOLECULAR_WEIGHT>  (1) 
180.16

>  <PUBCHEM_OPENEYE_CAN_SMILES>  (1) 
C(C1C(C(C(O1)(CO)O)O)O)O

>  <PUBCHEM_OPENEYE_ISO_SMILES>  (1) 
C(C1C(C(C(O1)(CO)O)O)O)O

>  <PUBCHEM_CACTVS_TPSA>  (1) 
110

>  <PUBCHEM_MONOISOTOPIC_WEIGHT>  (1) 
180.063388

>  <PUBCHEM_TOTAL_CHARGE>  (1) 
0

>  <PUBCHEM_HEAVY_ATOM_COUNT>  (1) 
12

>  <PUBCHEM_ATOM_DEF_STEREO_COUNT>  (1) 
0

>  <PUBCHEM_ATOM_UDEF_STEREO_COUNT>  (1) 
4

>  <PUBCHEM_BOND_DEF_STEREO_COUNT>  (1) 
0

>  <PUBCHEM_BOND_UDEF_STEREO_COUNT>  (1) 
0

>  <PUBCHEM_ISOTOPIC_ATOM_COUNT>  (1) 
0

>  <PUBCHEM_COMPONENT_COUNT>  (1) 
1

>  <PUBCHEM_CACTVS_TAUTO_COUNT>  (1) 
-1

>  <PUBCHEM_COORDINATE_TYPE>  (1) 
1
5
255

>  <PUBCHEM_BONDANNOTATIONS>  (1) 
10  12  3
7  2  3
8  3  3
9  4  3

$$$$
