719
     RDKit          2D

 16 16  0  0  1  0  0  0  0  0999 V2000
   -3.9045   -0.3624    0.0000 P   0  0  0  0  0  0  0  0  0  0  0  0
    0.6983   -0.8853    0.0000 O   0  0  0  0  0  0  0  0  0  0  0  0
    3.6889    1.5890    0.0000 O   0  0  0  0  0  0  0  0  0  0  0  0
    0.7444    2.9959    0.0000 O   0  0  0  0  0  0  0  0  0  0  0  0
    2.2901   -2.1084    0.0000 O   0  0  0  0  0  0  0  0  0  0  0  0
   -2.4175   -0.5592    0.0000 O   0  0  0  0  0  0  0  0  0  0  0  0
    4.3877   -1.9719    0.0000 O   0  0  0  0  0  0  0  0  0  0  0  0
   -3.7077    1.1247    0.0000 O   0  0  0  0  0  0  0  0  0  0  0  0
   -5.3916   -0.1656    0.0000 O   0  0  0  0  0  0  0  0  0  0  0  0
   -4.1013   -1.8494    0.0000 O   0  0  0  0  0  0  0  0  0  0  0  0
    2.3702    0.8741    0.0000 C   0  0  0  0  0  0  0  0  0  0  0  0
    1.0168    1.5208    0.0000 C   0  0  0  0  0  0  0  0  0  0  0  0
    2.1734   -0.6129    0.0000 C   0  0  0  0  0  0  0  0  0  0  0  0
   -0.0165    0.4334    0.0000 C   0  0  0  0  0  0  0  0  0  0  0  0
   -1.5035    0.6302    0.0000 C   0  0  0  0  0  0  0  0  0  0  0  0
    3.6729   -0.6532    0.0000 C   0  0  0  0  0  0  0  0  0  0  0  0
  1  6  1  0
  1  8  1  0
  1  9  1  0
  1 10  2  0
  2 13  1  0
  2 14  1  0
  3 11  1  0
  4 12  1  0
  5 13  1  0
  6 15  1  0
  7 16  1  0
 11 12  1  0
 11 13  1  0
 12 14  1  0
 13 16  1  0
 14 15  1  0
M  END
>  <PUBCHEM_COMPOUND_CID>  (1) 
719

>  <PUBCHEM_COMPOUND_CANONICALIZED>  (1) 
1

>  <PUBCHEM_CACTVS_COMPLEXITY>  (1) 
290

>  <PUBCHEM_CACTVS_HBOND_ACCEPTOR>  (1) 
9

>  <PUBCHEM_CACTVS_HBOND_DONOR>  (1) 
6

>  <PUBCHEM_CACTVS_ROTATABLE_BOND>  (1) 
4

>  <PUBCHEM_CACTVS_SUBSKEYS>  (1) 
AAADccBgPAIAAAAAAAAAAAAAAAAAASAAAAAAAAAAAAAAAAAAAAAAGgAACCAACBSggAIACAAABxAAQAAAAIAAAAAAAAAAAAAAAAAREAIAAAACQAAFAAAHAAHAYAQAAAAAAAAAAAAAAAAAAAAAAAAAAAAAAA==

>  <PUBCHEM_IUPAC_OPENEYE_NAME>  (1) 
[3,4,5-trihydroxy-5-(hydroxymethyl)tetrahydrofuran-2-yl]methyl dihydrogen phosphate

>  <PUBCHEM_IUPAC_CAS_NAME>  (1) 
[3,4,5-trihydroxy-5-(hydroxymethyl)-2-oxolanyl]methyl dihydrogen phosphate

>  <PUBCHEM_IUPAC_NAME_MARKUP>  (1) 
[3,4,5-trihydroxy-5-(hydroxymethyl)oxolan-2-yl]methyl dihydrogen phosphate

>  <PUBCHEM_IUPAC_NAME>  (1) 
[3,4,5-trihydroxy-5-(hydroxymethyl)oxolan-2-yl]methyl dihydrogen phosphate

>  <PUBCHEM_IUPAC_SYSTEMATIC_NAME>  (1) 
[5-(hydroxymethyl)-3,4,5-tris(oxidanyl)oxolan-2-yl]methyl dihydrogen phosphate

>  <PUBCHEM_IUPAC_TRADITIONAL_NAME>  (1) 
(3,4,5-trihydroxy-5-methylol-tetrahydrofuran-2-yl)methyl dihydrogen phosphate

>  <PUBCHEM_IUPAC_INCHI>  (1) 
InChI=1S/C6H13O9P/c7-2-6(10)5(9)4(8)3(15-6)1-14-16(11,12)13/h3-5,7-10H,1-2H2,(H2,11,12,13)

>  <PUBCHEM_IUPAC_INCHIKEY>  (1) 
BGWGXPAPYGQALX-UHFFFAOYSA-N

>  <PUBCHEM_XLOGP3_AA>  (1) 
-3.9

>  <PUBCHEM_EXACT_MASS>  (1) 
260.029719

>  <PUBCHEM_MOLECULAR_FORMULA>  (1) 
C6H13O9P

>  <PUBCHEM_MOLECULAR_WEIGHT>  (1) 
260.14

>  <PUBCHEM_OPENEYE_CAN_SMILES>  (1) 
C(C1C(C(C(O1)(CO)O)O)O)OP(=O)(O)O

>  <PUBCHEM_OPENEYE_ISO_SMILES>  (1) 
C(C1C(C(C(O1)(CO)O)O)O)OP(=O)(O)O

>  <PUBCHEM_CACTVS_TPSA>  (1) 
157

>  <PUBCHEM_MONOISOTOPIC_WEIGHT>  (1) 
260.029719

>  <PUBCHEM_TOTAL_CHARGE>  (1) 
0

>  <PUBCHEM_HEAVY_ATOM_COUNT>  (1) 
16

>  <PUBCHEM_ATOM_DEF_STEREO_COUNT>  (1) 
0

>  <PUBCHEM_ATOM_UDEF_STEREO_COUNT>  (1) 
4

>  <PUBCHEM_BOND_DEF_STEREO_COUNT>  (1) 
0

>  <PUBCHEM_BOND_UDEF_STEREO_COUNT>  (1) 
0

>  <PUBCHEM_ISOTOPIC_ATOM_COUNT>  (1) 
0

>  <PUBCHEM_COMPONENT_COUNT>  (1) 
1

>  <PUBCHEM_CACTVS_TAUTO_COUNT>  (1) 
-1

>  <PUBCHEM_COORDINATE_TYPE>  (1) 
1
5
255

>  <PUBCHEM_BONDANNOTATIONS>  (1) 
14  15  3
11  3  3
12  4  3
13  5  3

$$$$
