720
     RDKit          2D

 21 21  0  0  1  0  0  0  0  0999 V2000
   -2.3012   -0.7861    0.0000 O   0  0  0  0  0  0  0  0  0  0  0  0
   -6.2655   -0.9709    0.0000 O   0  0  0  0  0  0  0  0  0  0  0  0
   -5.8364    1.9982    0.0000 O   0  0  0  0  0  0  0  0  0  0  0  0
   -3.0505    3.1112    0.0000 O   0  0  0  0  0  0  0  0  0  0  0  0
   -2.7303   -3.7552    0.0000 O   0  0  0  0  0  0  0  0  0  0  0  0
    8.1988   -0.7880    0.0000 O   0  0  0  0  0  0  0  0  0  0  0  0
    7.2350    1.6247    0.0000 O   0  0  0  0  0  0  0  0  0  0  0  0
   -0.6936    1.2550    0.0000 N   0  0  0  0  0  0  0  0  0  0  0  0
    5.4129   -1.9009    0.0000 N   0  0  0  0  0  0  0  0  0  0  0  0
   -4.8725   -0.4145    0.0000 C   0  0  0  0  0  0  0  0  0  0  0  0
   -3.6941   -1.3425    0.0000 C   0  0  0  0  0  0  0  0  0  0  0  0
   -4.6580    1.0701    0.0000 C   0  0  0  0  0  0  0  0  0  0  0  0
   -2.0866    0.6985    0.0000 C   0  0  0  0  0  0  0  0  0  0  0  0
   -3.2650    1.6266    0.0000 C   0  0  0  0  0  0  0  0  0  0  0  0
    0.4848    0.3269    0.0000 C   0  0  0  0  0  0  0  0  0  0  0  0
   -3.9087   -2.8271    0.0000 C   0  0  0  0  0  0  0  0  0  0  0  0
    1.8777    0.8834    0.0000 C   0  0  0  0  0  0  0  0  0  0  0  0
    3.0561   -0.0447    0.0000 C   0  0  0  0  0  0  0  0  0  0  0  0
    4.4491    0.5117    0.0000 C   0  0  0  0  0  0  0  0  0  0  0  0
    5.6275   -0.4164    0.0000 C   0  0  0  0  0  0  0  0  0  0  0  0
    7.0204    0.1401    0.0000 C   0  0  0  0  0  0  0  0  0  0  0  0
  1 11  1  0
  1 13  1  0
  2 10  1  0
  3 12  1  0
  4 14  2  0
  5 16  1  0
  6 21  1  0
  7 21  2  0
  8 13  1  0
  8 15  1  0
  9 20  1  0
 10 11  1  0
 10 12  1  0
 11 16  1  0
 12 14  1  0
 13 14  1  0
 15 17  1  0
 17 18  1  0
 18 19  1  0
 19 20  1  0
 20 21  1  0
M  END
>  <PUBCHEM_COMPOUND_CID>  (1) 
720

>  <PUBCHEM_COMPOUND_CANONICALIZED>  (1) 
1

>  <PUBCHEM_CACTVS_COMPLEXITY>  (1) 
366

>  <PUBCHEM_CACTVS_HBOND_ACCEPTOR>  (1) 
9

>  <PUBCHEM_CACTVS_HBOND_DONOR>  (1) 
6

>  <PUBCHEM_CACTVS_ROTATABLE_BOND>  (1) 
8

>  <PUBCHEM_CACTVS_SUBSKEYS>  (1) 
AAADceBzOAAAAAAAAAAAAAAAAAAAAAAAAAAkAAAAAAAAAAAAAAAAHgAQCAAACDzhgAYACALABgAIAICQCAIAAAAAAAAAAIHIAAEDEBYAgCQOQAAHMACDAAH6XAIAAAAAAAAAAAAAAAAAAAAAAAAAAAAAAA==

>  <PUBCHEM_IUPAC_OPENEYE_NAME>  (1) 
2-amino-6-[[4,5-dihydroxy-6-(hydroxymethyl)-3-oxo-tetrahydropyran-2-yl]amino]hexanoic acid

>  <PUBCHEM_IUPAC_CAS_NAME>  (1) 
2-amino-6-[[4,5-dihydroxy-6-(hydroxymethyl)-3-oxo-2-oxanyl]amino]hexanoic acid

>  <PUBCHEM_IUPAC_NAME_MARKUP>  (1) 
2-amino-6-[[4,5-dihydroxy-6-(hydroxymethyl)-3-oxooxan-2-yl]amino]hexanoic acid

>  <PUBCHEM_IUPAC_NAME>  (1) 
2-amino-6-[[4,5-dihydroxy-6-(hydroxymethyl)-3-oxooxan-2-yl]amino]hexanoic acid

>  <PUBCHEM_IUPAC_SYSTEMATIC_NAME>  (1) 
2-azanyl-6-[[6-(hydroxymethyl)-4,5-bis(oxidanyl)-3-oxidanylidene-oxan-2-yl]amino]hexanoic acid

>  <PUBCHEM_IUPAC_TRADITIONAL_NAME>  (1) 
2-amino-6-[(4,5-dihydroxy-3-keto-6-methylol-tetrahydropyran-2-yl)amino]hexanoic acid

>  <PUBCHEM_IUPAC_INCHI>  (1) 
InChI=1S/C12H22N2O7/c13-6(12(19)20)3-1-2-4-14-11-10(18)9(17)8(16)7(5-15)21-11/h6-9,11,14-17H,1-5,13H2,(H,19,20)

>  <PUBCHEM_IUPAC_INCHIKEY>  (1) 
ZRMPOBPOYIGDMF-UHFFFAOYSA-N

>  <PUBCHEM_XLOGP3_AA>  (1) 
-4.4

>  <PUBCHEM_EXACT_MASS>  (1) 
306.142701

>  <PUBCHEM_MOLECULAR_FORMULA>  (1) 
C12H22N2O7

>  <PUBCHEM_MOLECULAR_WEIGHT>  (1) 
306.31

>  <PUBCHEM_OPENEYE_CAN_SMILES>  (1) 
C(CCNC1C(=O)C(C(C(O1)CO)O)O)CC(C(=O)O)N

>  <PUBCHEM_OPENEYE_ISO_SMILES>  (1) 
C(CCNC1C(=O)C(C(C(O1)CO)O)O)CC(C(=O)O)N

>  <PUBCHEM_CACTVS_TPSA>  (1) 
162

>  <PUBCHEM_MONOISOTOPIC_WEIGHT>  (1) 
306.142701

>  <PUBCHEM_TOTAL_CHARGE>  (1) 
0

>  <PUBCHEM_HEAVY_ATOM_COUNT>  (1) 
21

>  <PUBCHEM_ATOM_DEF_STEREO_COUNT>  (1) 
0

>  <PUBCHEM_ATOM_UDEF_STEREO_COUNT>  (1) 
5

>  <PUBCHEM_BOND_DEF_STEREO_COUNT>  (1) 
0

>  <PUBCHEM_BOND_UDEF_STEREO_COUNT>  (1) 
0

>  <PUBCHEM_ISOTOPIC_ATOM_COUNT>  (1) 
0

>  <PUBCHEM_COMPONENT_COUNT>  (1) 
1

>  <PUBCHEM_CACTVS_TAUTO_COUNT>  (1) 
-1

>  <PUBCHEM_COORDINATE_TYPE>  (1) 
1
5
255

>  <PUBCHEM_BONDANNOTATIONS>  (1) 
11  16  3
10  2  3
12  3  3
13  8  3
20  9  3

$$$$
