721
     RDKit          2D

 25 25  0  0  1  0  0  0  0  0999 V2000
   -3.1559   -3.8691    0.0000 P   0  0  0  0  0  0  0  0  0  0  0  0
   -1.7771    0.4144    0.0000 O   0  0  0  0  0  0  0  0  0  0  0  0
   -5.7166    0.8946    0.0000 O   0  0  0  0  0  0  0  0  0  0  0  0
   -4.7974    3.7503    0.0000 O   0  0  0  0  0  0  0  0  0  0  0  0
   -2.6963   -2.4413    0.0000 O   0  0  0  0  0  0  0  0  0  0  0  0
   -1.8647    4.3821    0.0000 O   0  0  0  0  0  0  0  0  0  0  0  0
   -4.5838   -3.4095    0.0000 O   0  0  0  0  0  0  0  0  0  0  0  0
   -3.6155   -5.2970    0.0000 O   0  0  0  0  0  0  0  0  0  0  0  0
   -1.7281   -4.3287    0.0000 O   0  0  0  0  0  0  0  0  0  0  0  0
    8.5749   -1.3419    0.0000 O   0  0  0  0  0  0  0  0  0  0  0  0
    8.0278    1.1979    0.0000 O   0  0  0  0  0  0  0  0  0  0  0  0
    0.1488    2.1582    0.0000 N   0  0  0  0  0  0  0  0  0  0  0  0
    5.6422   -1.9737    0.0000 N   0  0  0  0  0  0  0  0  0  0  0  0
   -3.2435    0.0985    0.0000 C   0  0  0  0  0  0  0  0  0  0  0  0
   -4.2503    1.2105    0.0000 C   0  0  0  0  0  0  0  0  0  0  0  0
   -3.7907    2.6383    0.0000 C   0  0  0  0  0  0  0  0  0  0  0  0
   -1.3175    1.8423    0.0000 C   0  0  0  0  0  0  0  0  0  0  0  0
   -2.3243    2.9543    0.0000 C   0  0  0  0  0  0  0  0  0  0  0  0
   -3.7031   -1.3293    0.0000 C   0  0  0  0  0  0  0  0  0  0  0  0
    1.1556    1.0463    0.0000 C   0  0  0  0  0  0  0  0  0  0  0  0
    2.6219    1.3622    0.0000 C   0  0  0  0  0  0  0  0  0  0  0  0
    3.6287    0.2502    0.0000 C   0  0  0  0  0  0  0  0  0  0  0  0
    5.0950    0.5661    0.0000 C   0  0  0  0  0  0  0  0  0  0  0  0
    6.1018   -0.5458    0.0000 C   0  0  0  0  0  0  0  0  0  0  0  0
    7.5682   -0.2299    0.0000 C   0  0  0  0  0  0  0  0  0  0  0  0
  1  5  1  0
  1  7  1  0
  1  8  1  0
  1  9  2  0
  2 14  1  0
  2 17  1  0
  3 15  1  0
  4 16  1  0
  5 19  1  0
  6 18  2  0
 10 25  1  0
 11 25  2  0
 12 17  1  0
 12 20  1  0
 13 24  1  0
 14 15  1  0
 14 19  1  0
 15 16  1  0
 16 18  1  0
 17 18  1  0
 20 21  1  0
 21 22  1  0
 22 23  1  0
 23 24  1  0
 24 25  1  0
M  END
>  <PUBCHEM_COMPOUND_CID>  (1) 
721

>  <PUBCHEM_COMPOUND_CANONICALIZED>  (1) 
1

>  <PUBCHEM_CACTVS_COMPLEXITY>  (1) 
512

>  <PUBCHEM_CACTVS_HBOND_ACCEPTOR>  (1) 
12

>  <PUBCHEM_CACTVS_HBOND_DONOR>  (1) 
7

>  <PUBCHEM_CACTVS_ROTATABLE_BOND>  (1) 
10

>  <PUBCHEM_CACTVS_SUBSKEYS>  (1) 
AAADceBzPAIAAAAAAAAAAAAAAAAAAAAAAAAkAAAAAAAAAAAAAAAAHgAQCCAACDzhgAYACALABxAIQICQCIIAAAAAAAAAAIHIAAEDEBYAgCQOQAAHMACDAAH6XAIAAAAAAAAAAAAAAAAAAAAAAAAAAAAAAA==

>  <PUBCHEM_IUPAC_OPENEYE_NAME>  (1) 
2-amino-6-[[4,5-dihydroxy-3-oxo-6-(phosphonooxymethyl)tetrahydropyran-2-yl]amino]hexanoic acid

>  <PUBCHEM_IUPAC_CAS_NAME>  (1) 
2-amino-6-[[4,5-dihydroxy-3-oxo-6-(phosphonooxymethyl)-2-oxanyl]amino]hexanoic acid

>  <PUBCHEM_IUPAC_NAME_MARKUP>  (1) 
2-amino-6-[[4,5-dihydroxy-3-oxo-6-(phosphonooxymethyl)oxan-2-yl]amino]hexanoic acid

>  <PUBCHEM_IUPAC_NAME>  (1) 
2-amino-6-[[4,5-dihydroxy-3-oxo-6-(phosphonooxymethyl)oxan-2-yl]amino]hexanoic acid

>  <PUBCHEM_IUPAC_SYSTEMATIC_NAME>  (1) 
2-azanyl-6-[[4,5-bis(oxidanyl)-3-oxidanylidene-6-(phosphonooxymethyl)oxan-2-yl]amino]hexanoic acid

>  <PUBCHEM_IUPAC_TRADITIONAL_NAME>  (1) 
2-amino-6-[[4,5-dihydroxy-3-keto-6-(phosphonooxymethyl)tetrahydropyran-2-yl]amino]hexanoic acid

>  <PUBCHEM_IUPAC_INCHI>  (1) 
InChI=1S/C12H23N2O10P/c13-6(12(18)19)3-1-2-4-14-11-10(17)9(16)8(15)7(24-11)5-23-25(20,21)22/h6-9,11,14-16H,1-5,13H2,(H,18,19)(H2,20,21,22)

>  <PUBCHEM_IUPAC_INCHIKEY>  (1) 
BZFCRRVQZCIOBA-UHFFFAOYSA-N

>  <PUBCHEM_XLOGP3_AA>  (1) 
-8.4

>  <PUBCHEM_EXACT_MASS>  (1) 
386.109032

>  <PUBCHEM_MOLECULAR_FORMULA>  (1) 
C12H23N2O10P

>  <PUBCHEM_MOLECULAR_WEIGHT>  (1) 
386.29

>  <PUBCHEM_OPENEYE_CAN_SMILES>  (1) 
C(CCNC1C(=O)C(C(C(O1)COP(=O)(O)O)O)O)CC(C(=O)O)N

>  <PUBCHEM_OPENEYE_ISO_SMILES>  (1) 
C(CCNC1C(=O)C(C(C(O1)COP(=O)(O)O)O)O)CC(C(=O)O)N

>  <PUBCHEM_CACTVS_TPSA>  (1) 
209

>  <PUBCHEM_MONOISOTOPIC_WEIGHT>  (1) 
386.109032

>  <PUBCHEM_TOTAL_CHARGE>  (1) 
0

>  <PUBCHEM_HEAVY_ATOM_COUNT>  (1) 
25

>  <PUBCHEM_ATOM_DEF_STEREO_COUNT>  (1) 
0

>  <PUBCHEM_ATOM_UDEF_STEREO_COUNT>  (1) 
5

>  <PUBCHEM_BOND_DEF_STEREO_COUNT>  (1) 
0

>  <PUBCHEM_BOND_UDEF_STEREO_COUNT>  (1) 
0

>  <PUBCHEM_ISOTOPIC_ATOM_COUNT>  (1) 
0

>  <PUBCHEM_COMPONENT_COUNT>  (1) 
1

>  <PUBCHEM_CACTVS_TAUTO_COUNT>  (1) 
-1

>  <PUBCHEM_COORDINATE_TYPE>  (1) 
1
5
255

>  <PUBCHEM_BONDANNOTATIONS>  (1) 
17  12  3
24  13  3
14  19  3
15  3  3
16  4  3

$$$$
