722
     RDKit          2D

 13 13  0  0  1  0  0  0  0  0999 V2000
    0.1716   -0.9291    0.0000 O   0  0  0  0  0  0  0  0  0  0  0  0
    2.2053    2.3768    0.0000 O   0  0  0  0  0  0  0  0  0  0  0  0
   -1.0355    2.7598    0.0000 O   0  0  0  0  0  0  0  0  0  0  0  0
   -2.2194    0.8556    0.0000 O   0  0  0  0  0  0  0  0  0  0  0  0
    2.9800   -2.3174    0.0000 O   0  0  0  0  0  0  0  0  0  0  0  0
   -3.3170   -0.9371    0.0000 O   0  0  0  0  0  0  0  0  0  0  0  0
   -1.2350   -2.4912    0.0000 O   0  0  0  0  0  0  0  0  0  0  0  0
    1.1873    1.2752    0.0000 C   0  0  0  0  0  0  0  0  0  0  0  0
   -0.3024    1.4512    0.0000 C   0  0  0  0  0  0  0  0  0  0  0  0
    1.4802   -0.1959    0.0000 C   0  0  0  0  0  0  0  0  0  0  0  0
   -0.9301    0.0889    0.0000 C   0  0  0  0  0  0  0  0  0  0  0  0
    2.8425   -0.8237    0.0000 C   0  0  0  0  0  0  0  0  0  0  0  0
   -1.8274   -1.1131    0.0000 C   0  0  0  0  0  0  0  0  0  0  0  0
  1 10  1  0
  1 11  1  0
  2  8  1  0
  3  9  1  0
  4 11  1  0
  5 12  1  0
  6 13  1  0
  7 13  2  0
  8  9  1  0
  8 10  1  0
  9 11  1  0
 10 12  1  0
 11 13  1  0
M  END
>  <PUBCHEM_COMPOUND_CID>  (1) 
722

>  <PUBCHEM_COMPOUND_CANONICALIZED>  (1) 
1

>  <PUBCHEM_CACTVS_COMPLEXITY>  (1) 
217

>  <PUBCHEM_CACTVS_HBOND_ACCEPTOR>  (1) 
7

>  <PUBCHEM_CACTVS_HBOND_DONOR>  (1) 
5

>  <PUBCHEM_CACTVS_ROTATABLE_BOND>  (1) 
2

>  <PUBCHEM_CACTVS_SUBSKEYS>  (1) 
AAADccBgOAAAAAAAAAAAAAAAAAAAASAAAAAAAAAAAAAAAAAAAAAAGgAACAAACBSggAIACAAABgAIAACQCAIAAAAAAAAAAAFAAAAREBYAAAQCQAAFIAAHAAHKbARAAAAAAAAAAAAAAAAAAAAAAAAAAAAAAA==

>  <PUBCHEM_IUPAC_OPENEYE_NAME>  (1) 
2,3,4-trihydroxy-5-(hydroxymethyl)tetrahydrofuran-2-carboxylic acid

>  <PUBCHEM_IUPAC_CAS_NAME>  (1) 
2,3,4-trihydroxy-5-(hydroxymethyl)-2-oxolanecarboxylic acid

>  <PUBCHEM_IUPAC_NAME_MARKUP>  (1) 
2,3,4-trihydroxy-5-(hydroxymethyl)oxolane-2-carboxylic acid

>  <PUBCHEM_IUPAC_NAME>  (1) 
2,3,4-trihydroxy-5-(hydroxymethyl)oxolane-2-carboxylic acid

>  <PUBCHEM_IUPAC_SYSTEMATIC_NAME>  (1) 
5-(hydroxymethyl)-2,3,4-tris(oxidanyl)oxolane-2-carboxylic acid

>  <PUBCHEM_IUPAC_TRADITIONAL_NAME>  (1) 
2,3,4-trihydroxy-5-methylol-tetrahydrofuran-2-carboxylic acid

>  <PUBCHEM_IUPAC_INCHI>  (1) 
InChI=1S/C6H10O7/c7-1-2-3(8)4(9)6(12,13-2)5(10)11/h2-4,7-9,12H,1H2,(H,10,11)

>  <PUBCHEM_IUPAC_INCHIKEY>  (1) 
XPFSDLKBUIGDJW-UHFFFAOYSA-N

>  <PUBCHEM_XLOGP3_AA>  (1) 
-2

>  <PUBCHEM_EXACT_MASS>  (1) 
194.042653

>  <PUBCHEM_MOLECULAR_FORMULA>  (1) 
C6H10O7

>  <PUBCHEM_MOLECULAR_WEIGHT>  (1) 
194.14

>  <PUBCHEM_OPENEYE_CAN_SMILES>  (1) 
C(C1C(C(C(O1)(C(=O)O)O)O)O)O

>  <PUBCHEM_OPENEYE_ISO_SMILES>  (1) 
C(C1C(C(C(O1)(C(=O)O)O)O)O)O

>  <PUBCHEM_CACTVS_TPSA>  (1) 
127

>  <PUBCHEM_MONOISOTOPIC_WEIGHT>  (1) 
194.042653

>  <PUBCHEM_TOTAL_CHARGE>  (1) 
0

>  <PUBCHEM_HEAVY_ATOM_COUNT>  (1) 
13

>  <PUBCHEM_ATOM_DEF_STEREO_COUNT>  (1) 
0

>  <PUBCHEM_ATOM_UDEF_STEREO_COUNT>  (1) 
4

>  <PUBCHEM_BOND_DEF_STEREO_COUNT>  (1) 
0

>  <PUBCHEM_BOND_UDEF_STEREO_COUNT>  (1) 
0

>  <PUBCHEM_ISOTOPIC_ATOM_COUNT>  (1) 
0

>  <PUBCHEM_COMPONENT_COUNT>  (1) 
1

>  <PUBCHEM_CACTVS_TAUTO_COUNT>  (1) 
-1

>  <PUBCHEM_COORDINATE_TYPE>  (1) 
1
5
255

>  <PUBCHEM_BONDANNOTATIONS>  (1) 
10  12  3
8  2  3
9  3  3
11  4  3

$$$$
