723
     RDKit          2D

  8  7  0  0  0  0  0  0  0  0999 V2000
    3.1182    0.9820    0.0000 O   0  0  0  0  0  0  0  0  0  0  0  0
   -3.1182   -0.9820    0.0000 O   0  0  0  0  0  0  0  0  0  0  0  0
    2.2678   -1.4730    0.0000 O   0  0  0  0  0  0  0  0  0  0  0  0
   -2.2678    1.4730    0.0000 O   0  0  0  0  0  0  0  0  0  0  0  0
    0.5669    0.4910    0.0000 C   0  0  0  0  0  0  0  0  0  0  0  0
   -0.5669   -0.4910    0.0000 C   0  0  0  0  0  0  0  0  0  0  0  0
    1.9843    0.0000    0.0000 C   0  0  0  0  0  0  0  0  0  0  0  0
   -1.9843   -0.0000    0.0000 C   0  0  0  0  0  0  0  0  0  0  0  0
  1  7  1  0
  2  8  1  0
  3  7  2  0
  4  8  2  0
  5  6  2  3
  5  7  1  0
  6  8  1  0
M  END
>  <PUBCHEM_COMPOUND_CID>  (1) 
723

>  <PUBCHEM_COMPOUND_CANONICALIZED>  (1) 
1

>  <PUBCHEM_CACTVS_COMPLEXITY>  (1) 
119

>  <PUBCHEM_CACTVS_HBOND_ACCEPTOR>  (1) 
4

>  <PUBCHEM_CACTVS_HBOND_DONOR>  (1) 
2

>  <PUBCHEM_CACTVS_ROTATABLE_BOND>  (1) 
2

>  <PUBCHEM_CACTVS_SUBSKEYS>  (1) 
AAADcYBgOAAAAAAAAAAAAAAAAAAAAAAAAAAAAAAAAAAAAAAAAAAAGgAACAAACACAgAAACAAAAgCIACDSCAAAAAAAAAAICAAAAEAABAAAAAAAEAAAAAAAEYAAAAAAAAAAAAAAAAAAAAAAAAAAAAAAAAAAAA==

>  <PUBCHEM_IUPAC_OPENEYE_NAME>  (1) 
but-2-enedioic acid

>  <PUBCHEM_IUPAC_CAS_NAME>  (1) 
but-2-enedioic acid

>  <PUBCHEM_IUPAC_NAME_MARKUP>  (1) 
but-2-enedioic acid

>  <PUBCHEM_IUPAC_NAME>  (1) 
but-2-enedioic acid

>  <PUBCHEM_IUPAC_SYSTEMATIC_NAME>  (1) 
but-2-enedioic acid

>  <PUBCHEM_IUPAC_TRADITIONAL_NAME>  (1) 
but-2-enedioic acid

>  <PUBCHEM_IUPAC_INCHI>  (1) 
InChI=1S/C4H4O4/c5-3(6)1-2-4(7)8/h1-2H,(H,5,6)(H,7,8)

>  <PUBCHEM_IUPAC_INCHIKEY>  (1) 
VZCYOOQTPOCHFL-UHFFFAOYSA-N

>  <PUBCHEM_XLOGP3>  (1) 
-0.3

>  <PUBCHEM_EXACT_MASS>  (1) 
116.010959

>  <PUBCHEM_MOLECULAR_FORMULA>  (1) 
C4H4O4

>  <PUBCHEM_MOLECULAR_WEIGHT>  (1) 
116.07

>  <PUBCHEM_OPENEYE_CAN_SMILES>  (1) 
C(=CC(=O)O)C(=O)O

>  <PUBCHEM_OPENEYE_ISO_SMILES>  (1) 
C(=CC(=O)O)C(=O)O

>  <PUBCHEM_CACTVS_TPSA>  (1) 
74.6

>  <PUBCHEM_MONOISOTOPIC_WEIGHT>  (1) 
116.010959

>  <PUBCHEM_TOTAL_CHARGE>  (1) 
0

>  <PUBCHEM_HEAVY_ATOM_COUNT>  (1) 
8

>  <PUBCHEM_ATOM_DEF_STEREO_COUNT>  (1) 
0

>  <PUBCHEM_ATOM_UDEF_STEREO_COUNT>  (1) 
0

>  <PUBCHEM_BOND_DEF_STEREO_COUNT>  (1) 
0

>  <PUBCHEM_BOND_UDEF_STEREO_COUNT>  (1) 
1

>  <PUBCHEM_ISOTOPIC_ATOM_COUNT>  (1) 
0

>  <PUBCHEM_COMPONENT_COUNT>  (1) 
1

>  <PUBCHEM_CACTVS_TAUTO_COUNT>  (1) 
-1

>  <PUBCHEM_COORDINATE_TYPE>  (1) 
1
5
255

>  <PUBCHEM_BONDANNOTATIONS>  (1) 
5  6  1

$$$$
