728
     RDKit          2D

 11 11  0  0  1  0  0  0  0  0999 V2000
    0.0000   -2.7273    0.0000 Cl  0  0  0  0  0  0  0  0  0  0  0  0
   -2.5981   -1.2273    0.0000 Cl  0  0  0  0  0  0  0  0  0  0  0  0
    2.5981   -1.2273    0.0000 Cl  0  0  0  0  0  0  0  0  0  0  0  0
   -2.5981    1.7727    0.0000 Cl  0  0  0  0  0  0  0  0  0  0  0  0
    2.5981    1.7727    0.0000 Cl  0  0  0  0  0  0  0  0  0  0  0  0
    0.0000   -1.2273    0.0000 C   0  0  0  0  0  0  0  0  0  0  0  0
   -1.2990   -0.4773    0.0000 C   0  0  0  0  0  0  0  0  0  0  0  0
    1.2990   -0.4773    0.0000 C   0  0  0  0  0  0  0  0  0  0  0  0
   -1.2990    1.0227    0.0000 C   0  0  0  0  0  0  0  0  0  0  0  0
    1.2990    1.0227    0.0000 C   0  0  0  0  0  0  0  0  0  0  0  0
   -0.0000    1.7727    0.0000 C   0  0  0  0  0  0  0  0  0  0  0  0
  1  6  1  0
  2  7  1  0
  3  8  1  0
  4  9  1  0
  5 10  1  0
  6  7  1  0
  6  8  1  0
  7  9  1  0
  8 10  1  0
  9 11  1  0
 10 11  2  0
M  END
>  <PUBCHEM_COMPOUND_CID>  (1) 
728

>  <PUBCHEM_COMPOUND_CANONICALIZED>  (1) 
1

>  <PUBCHEM_CACTVS_COMPLEXITY>  (1) 
178

>  <PUBCHEM_CACTVS_HBOND_ACCEPTOR>  (1) 
0

>  <PUBCHEM_CACTVS_HBOND_DONOR>  (1) 
0

>  <PUBCHEM_CACTVS_ROTATABLE_BOND>  (1) 
0

>  <PUBCHEM_CACTVS_SUBSKEYS>  (1) 
AAADcYBgAAAHAAAAAAAAAAAAAAAAAAAAAAAgAAAAAAAAAAAAAAAAGAIAAAAACAOAAEAAAAAAAACAACBCAAAAAAAgAAAACEAAAggAAAIBAQAAAAAAgAAIAAMAAAAAAAAAAAAAAAAAAAAAAAAAAAAAAAAAAA==

>  <PUBCHEM_IUPAC_OPENEYE_NAME>  (1) 
1,3,4,5,6-pentachlorocyclohexene

>  <PUBCHEM_IUPAC_CAS_NAME>  (1) 
1,3,4,5,6-pentachlorocyclohexene

>  <PUBCHEM_IUPAC_NAME_MARKUP>  (1) 
1,3,4,5,6-pentachlorocyclohexene

>  <PUBCHEM_IUPAC_NAME>  (1) 
1,3,4,5,6-pentachlorocyclohexene

>  <PUBCHEM_IUPAC_SYSTEMATIC_NAME>  (1) 
1,3,4,5,6-pentakis(chloranyl)cyclohexene

>  <PUBCHEM_IUPAC_TRADITIONAL_NAME>  (1) 
1,3,4,5,6-pentachlorocyclohexene

>  <PUBCHEM_IUPAC_INCHI>  (1) 
InChI=1S/C6H5Cl5/c7-2-1-3(8)5(10)6(11)4(2)9/h1-2,4-6H

>  <PUBCHEM_IUPAC_INCHIKEY>  (1) 
MQYAVRUCONBHOR-UHFFFAOYSA-N

>  <PUBCHEM_XLOGP3>  (1) 
3.8

>  <PUBCHEM_EXACT_MASS>  (1) 
253.880439

>  <PUBCHEM_MOLECULAR_FORMULA>  (1) 
C6H5Cl5

>  <PUBCHEM_MOLECULAR_WEIGHT>  (1) 
254.4

>  <PUBCHEM_OPENEYE_CAN_SMILES>  (1) 
C1=C(C(C(C(C1Cl)Cl)Cl)Cl)Cl

>  <PUBCHEM_OPENEYE_ISO_SMILES>  (1) 
C1=C(C(C(C(C1Cl)Cl)Cl)Cl)Cl

>  <PUBCHEM_CACTVS_TPSA>  (1) 
0

>  <PUBCHEM_MONOISOTOPIC_WEIGHT>  (1) 
251.883389

>  <PUBCHEM_TOTAL_CHARGE>  (1) 
0

>  <PUBCHEM_HEAVY_ATOM_COUNT>  (1) 
11

>  <PUBCHEM_ATOM_DEF_STEREO_COUNT>  (1) 
0

>  <PUBCHEM_ATOM_UDEF_STEREO_COUNT>  (1) 
4

>  <PUBCHEM_BOND_DEF_STEREO_COUNT>  (1) 
0

>  <PUBCHEM_BOND_UDEF_STEREO_COUNT>  (1) 
0

>  <PUBCHEM_ISOTOPIC_ATOM_COUNT>  (1) 
0

>  <PUBCHEM_COMPONENT_COUNT>  (1) 
1

>  <PUBCHEM_CACTVS_TAUTO_COUNT>  (1) 
-1

>  <PUBCHEM_COORDINATE_TYPE>  (1) 
1
5
255

>  <PUBCHEM_BONDANNOTATIONS>  (1) 
6  1  3
7  2  3
8  3  3
9  4  3

$$$$
