729
     RDKit          2D

 10  9  0  0  1  0  0  0  0  0999 V2000
   -2.2397   -0.0361    0.0000 P   0  0  0  0  0  0  0  0  0  0  0  0
   -0.8420    0.5084    0.0000 O   0  0  0  0  0  0  0  0  0  0  0  0
    1.9533    1.5975    0.0000 O   0  0  0  0  0  0  0  0  0  0  0  0
   -1.6951   -1.4338    0.0000 O   0  0  0  0  0  0  0  0  0  0  0  0
   -3.6374   -0.5806    0.0000 O   0  0  0  0  0  0  0  0  0  0  0  0
   -2.7842    1.3616    0.0000 O   0  0  0  0  0  0  0  0  0  0  0  0
    4.2942   -0.2788    0.0000 O   0  0  0  0  0  0  0  0  0  0  0  0
    0.3284   -0.4297    0.0000 C   0  0  0  0  0  0  0  0  0  0  0  0
    1.7261    0.1148    0.0000 C   0  0  0  0  0  0  0  0  0  0  0  0
    2.8965   -0.8233    0.0000 C   0  0  0  0  0  0  0  0  0  0  0  0
  1  2  1  0
  1  4  1  0
  1  5  1  0
  1  6  2  0
  2  8  1  0
  3  9  1  0
  7 10  2  0
  8  9  1  0
  9 10  1  0
M  END
>  <PUBCHEM_COMPOUND_CID>  (1) 
729

>  <PUBCHEM_COMPOUND_CANONICALIZED>  (1) 
1

>  <PUBCHEM_CACTVS_COMPLEXITY>  (1) 
149

>  <PUBCHEM_CACTVS_HBOND_ACCEPTOR>  (1) 
6

>  <PUBCHEM_CACTVS_HBOND_DONOR>  (1) 
3

>  <PUBCHEM_CACTVS_ROTATABLE_BOND>  (1) 
4

>  <PUBCHEM_CACTVS_SUBSKEYS>  (1) 
AAADcYBAOAIAAAAAAAAAAAAAAAAAAAAAAAAAAAAAAAAAAAAAAAAAGgAACCAACBSggAIAAAAAAxAIQAgQgIIAAAAAAAAAAAFAAAABEAQAAAAAAAAAIAABAAAAAAAAAAAAAAAAAAAAAAAAAAAAAAAAAAAAAA==

>  <PUBCHEM_IUPAC_OPENEYE_NAME>  (1) 
(2-hydroxy-3-oxo-propyl) dihydrogen phosphate

>  <PUBCHEM_IUPAC_CAS_NAME>  (1) 
(2-hydroxy-3-oxopropyl) dihydrogen phosphate

>  <PUBCHEM_IUPAC_NAME_MARKUP>  (1) 
(2-hydroxy-3-oxopropyl) dihydrogen phosphate

>  <PUBCHEM_IUPAC_NAME>  (1) 
(2-hydroxy-3-oxopropyl) dihydrogen phosphate

>  <PUBCHEM_IUPAC_SYSTEMATIC_NAME>  (1) 
(2-oxidanyl-3-oxidanylidene-propyl) dihydrogen phosphate

>  <PUBCHEM_IUPAC_TRADITIONAL_NAME>  (1) 
(2-hydroxy-3-keto-propyl) dihydrogen phosphate

>  <PUBCHEM_IUPAC_INCHI>  (1) 
InChI=1S/C3H7O6P/c4-1-3(5)2-9-10(6,7)8/h1,3,5H,2H2,(H2,6,7,8)

>  <PUBCHEM_IUPAC_INCHIKEY>  (1) 
LXJXRIRHZLFYRP-UHFFFAOYSA-N

>  <PUBCHEM_XLOGP3_AA>  (1) 
-2.7

>  <PUBCHEM_EXACT_MASS>  (1) 
169.998025

>  <PUBCHEM_MOLECULAR_FORMULA>  (1) 
C3H7O6P

>  <PUBCHEM_MOLECULAR_WEIGHT>  (1) 
170.06

>  <PUBCHEM_OPENEYE_CAN_SMILES>  (1) 
C(C(C=O)O)OP(=O)(O)O

>  <PUBCHEM_OPENEYE_ISO_SMILES>  (1) 
C(C(C=O)O)OP(=O)(O)O

>  <PUBCHEM_CACTVS_TPSA>  (1) 
104

>  <PUBCHEM_MONOISOTOPIC_WEIGHT>  (1) 
169.998025

>  <PUBCHEM_TOTAL_CHARGE>  (1) 
0

>  <PUBCHEM_HEAVY_ATOM_COUNT>  (1) 
10

>  <PUBCHEM_ATOM_DEF_STEREO_COUNT>  (1) 
0

>  <PUBCHEM_ATOM_UDEF_STEREO_COUNT>  (1) 
1

>  <PUBCHEM_BOND_DEF_STEREO_COUNT>  (1) 
0

>  <PUBCHEM_BOND_UDEF_STEREO_COUNT>  (1) 
0

>  <PUBCHEM_ISOTOPIC_ATOM_COUNT>  (1) 
0

>  <PUBCHEM_COMPONENT_COUNT>  (1) 
1

>  <PUBCHEM_CACTVS_TAUTO_COUNT>  (1) 
-1

>  <PUBCHEM_COORDINATE_TYPE>  (1) 
1
5
255

>  <PUBCHEM_BONDANNOTATIONS>  (1) 
9  3  3

$$$$
