734
     RDKit          2D

 19 18  0  0  1  0  0  0  0  0999 V2000
    1.3295    1.9425    0.0000 P   0  0  0  0  0  0  0  0  0  0  0  0
    3.0738    0.0171    0.0000 P   0  0  0  0  0  0  0  0  0  0  0  0
   -0.0985    2.4017    0.0000 O   0  0  0  0  0  0  0  0  0  0  0  0
    2.7575    1.4834    0.0000 O   0  0  0  0  0  0  0  0  0  0  0  0
    1.7886    3.3705    0.0000 O   0  0  0  0  0  0  0  0  0  0  0  0
    0.8703    0.5145    0.0000 O   0  0  0  0  0  0  0  0  0  0  0  0
    1.6076   -0.2993    0.0000 O   0  0  0  0  0  0  0  0  0  0  0  0
    3.3902   -1.4492    0.0000 O   0  0  0  0  0  0  0  0  0  0  0  0
    4.5401    0.3335    0.0000 O   0  0  0  0  0  0  0  0  0  0  0  0
   -3.4334   -0.6197    0.0000 C   0  0  0  0  0  0  0  0  0  0  0  0
   -2.0054   -1.0788    0.0000 C   0  0  0  0  0  0  0  0  0  0  0  0
   -3.7498    0.8466    0.0000 C   0  0  0  0  0  0  0  0  0  0  0  0
   -1.6891   -2.5451    0.0000 C   0  0  0  0  0  0  0  0  0  0  0  0
   -2.6382    1.8537    0.0000 C   0  0  0  0  0  0  0  0  0  0  0  0
   -5.1778    1.3057    0.0000 C   0  0  0  0  0  0  0  0  0  0  0  0
   -0.2611   -3.0042    0.0000 C   0  0  0  0  0  0  0  0  0  0  0  0
   -1.2102    1.3946    0.0000 C   0  0  0  0  0  0  0  0  0  0  0  0
    0.0553   -4.4705    0.0000 C   0  0  0  0  0  0  0  0  0  0  0  0
    0.8506   -1.9971    0.0000 C   0  0  0  0  0  0  0  0  0  0  0  0
  1  3  1  0
  1  4  1  0
  1  5  1  0
  1  6  2  0
  2  4  1  0
  2  7  1  0
  2  8  1  0
  2  9  2  0
  3 17  1  0
 10 11  1  0
 10 12  1  0
 11 13  1  0
 12 14  2  3
 12 15  1  0
 13 16  2  3
 14 17  1  0
 16 18  1  0
 16 19  1  0
M  END
>  <PUBCHEM_COMPOUND_CID>  (1) 
734

>  <PUBCHEM_COMPOUND_CANONICALIZED>  (1) 
1

>  <PUBCHEM_CACTVS_COMPLEXITY>  (1) 
431

>  <PUBCHEM_CACTVS_HBOND_ACCEPTOR>  (1) 
7

>  <PUBCHEM_CACTVS_HBOND_DONOR>  (1) 
3

>  <PUBCHEM_CACTVS_ROTATABLE_BOND>  (1) 
8

>  <PUBCHEM_CACTVS_SUBSKEYS>  (1) 
AAADceBwOAMAAAAAAAAAAAAAAAAAAAAAAAAAAAAAAAAAAAAAAAAAGgAACCAADACggAICAAAAARCAQiBCAIAAAAAgAAAACAAAAAgABAIAAQAAEAAAgAAIAAIAAAAAAAAAAAAAAAAAAAAAAAAAAAAAAAAAAA==

>  <PUBCHEM_IUPAC_OPENEYE_NAME>  (1) 
3,7-dimethylocta-2,6-dienyl phosphono hydrogen phosphate

>  <PUBCHEM_IUPAC_CAS_NAME>  (1) 
3,7-dimethylocta-2,6-dienyl phosphono hydrogen phosphate

>  <PUBCHEM_IUPAC_NAME_MARKUP>  (1) 
3,7-dimethylocta-2,6-dienyl phosphono hydrogen phosphate

>  <PUBCHEM_IUPAC_NAME>  (1) 
3,7-dimethylocta-2,6-dienyl phosphono hydrogen phosphate

>  <PUBCHEM_IUPAC_SYSTEMATIC_NAME>  (1) 
3,7-dimethylocta-2,6-dienyl phosphono hydrogen phosphate

>  <PUBCHEM_IUPAC_TRADITIONAL_NAME>  (1) 
3,7-dimethylocta-2,6-dienyl phosphono hydrogen phosphate

>  <PUBCHEM_IUPAC_INCHI>  (1) 
InChI=1S/C10H20O7P2/c1-9(2)5-4-6-10(3)7-8-16-19(14,15)17-18(11,12)13/h5,7H,4,6,8H2,1-3H3,(H,14,15)(H2,11,12,13)

>  <PUBCHEM_IUPAC_INCHIKEY>  (1) 
GVVPGTZRZFNKDS-UHFFFAOYSA-N

>  <PUBCHEM_XLOGP3_AA>  (1) 
0.7

>  <PUBCHEM_EXACT_MASS>  (1) 
314.068427

>  <PUBCHEM_MOLECULAR_FORMULA>  (1) 
C10H20O7P2

>  <PUBCHEM_MOLECULAR_WEIGHT>  (1) 
314.21

>  <PUBCHEM_OPENEYE_CAN_SMILES>  (1) 
CC(=CCCC(=CCOP(=O)(O)OP(=O)(O)O)C)C

>  <PUBCHEM_OPENEYE_ISO_SMILES>  (1) 
CC(=CCCC(=CCOP(=O)(O)OP(=O)(O)O)C)C

>  <PUBCHEM_CACTVS_TPSA>  (1) 
113

>  <PUBCHEM_MONOISOTOPIC_WEIGHT>  (1) 
314.068427

>  <PUBCHEM_TOTAL_CHARGE>  (1) 
0

>  <PUBCHEM_HEAVY_ATOM_COUNT>  (1) 
19

>  <PUBCHEM_ATOM_DEF_STEREO_COUNT>  (1) 
0

>  <PUBCHEM_ATOM_UDEF_STEREO_COUNT>  (1) 
0

>  <PUBCHEM_BOND_DEF_STEREO_COUNT>  (1) 
0

>  <PUBCHEM_BOND_UDEF_STEREO_COUNT>  (1) 
1

>  <PUBCHEM_ISOTOPIC_ATOM_COUNT>  (1) 
0

>  <PUBCHEM_COMPONENT_COUNT>  (1) 
1

>  <PUBCHEM_CACTVS_TAUTO_COUNT>  (1) 
-1

>  <PUBCHEM_COORDINATE_TYPE>  (1) 
1
5
255

>  <PUBCHEM_BONDANNOTATIONS>  (1) 
12  14  1

$$$$
