735
     RDKit          2D

 29 28  0  0  1  0  0  0  0  0999 V2000
    3.6887   -1.1405    0.0000 P   0  0  0  0  0  0  0  0  0  0  0  0
    6.2866   -1.1057    0.0000 P   0  0  0  0  0  0  0  0  0  0  0  0
    2.3798   -0.4079    0.0000 O   0  0  0  0  0  0  0  0  0  0  0  0
    4.9977   -1.8730    0.0000 O   0  0  0  0  0  0  0  0  0  0  0  0
    2.9561   -2.4494    0.0000 O   0  0  0  0  0  0  0  0  0  0  0  0
    4.4213    0.1685    0.0000 O   0  0  0  0  0  0  0  0  0  0  0  0
    5.5193    0.1832    0.0000 O   0  0  0  0  0  0  0  0  0  0  0  0
    7.5755   -0.3385    0.0000 O   0  0  0  0  0  0  0  0  0  0  0  0
    7.0538   -2.3946    0.0000 O   0  0  0  0  0  0  0  0  0  0  0  0
   -4.1449    1.7551    0.0000 C   0  0  0  0  0  0  0  0  0  0  0  0
   -2.8360    1.0225    0.0000 C   0  0  0  0  0  0  0  0  0  0  0  0
   -4.1650    3.2550    0.0000 C   0  0  0  0  0  0  0  0  0  0  0  0
   -1.5671    3.2897    0.0000 C   0  0  0  0  0  0  0  0  0  0  0  0
   -1.5070   -1.2099    0.0000 C   0  0  0  0  0  0  0  0  0  0  0  0
   -1.4869   -2.7098    0.0000 C   0  0  0  0  0  0  0  0  0  0  0  0
   -0.2782    4.0570    0.0000 C   0  0  0  0  0  0  0  0  0  0  0  0
   -2.8159   -0.4773    0.0000 C   0  0  0  0  0  0  0  0  0  0  0  0
   -2.8761    4.0223    0.0000 C   0  0  0  0  0  0  0  0  0  0  0  0
   -2.7758   -3.4771    0.0000 C   0  0  0  0  0  0  0  0  0  0  0  0
    1.0307    3.3244    0.0000 C   0  0  0  0  0  0  0  0  0  0  0  0
   -5.4739    3.9876    0.0000 C   0  0  0  0  0  0  0  0  0  0  0  0
   -0.2181   -0.4426    0.0000 C   0  0  0  0  0  0  0  0  0  0  0  0
   -4.0848   -2.7445    0.0000 C   0  0  0  0  0  0  0  0  0  0  0  0
    1.0508    1.8245    0.0000 C   0  0  0  0  0  0  0  0  0  0  0  0
    2.3196    4.0917    0.0000 C   0  0  0  0  0  0  0  0  0  0  0  0
   -5.3737   -3.5118    0.0000 C   0  0  0  0  0  0  0  0  0  0  0  0
    2.3597    1.0920    0.0000 C   0  0  0  0  0  0  0  0  0  0  0  0
   -5.3536   -5.0116    0.0000 C   0  0  0  0  0  0  0  0  0  0  0  0
   -6.6826   -2.7792    0.0000 C   0  0  0  0  0  0  0  0  0  0  0  0
  1  3  1  0
  1  4  1  0
  1  5  1  0
  1  6  2  0
  2  4  1  0
  2  7  1  0
  2  8  1  0
  2  9  2  0
  3 27  1  0
 10 11  1  0
 10 12  1  0
 11 17  1  0
 12 18  2  3
 12 21  1  0
 13 16  1  0
 13 18  1  0
 14 15  1  0
 14 17  2  3
 14 22  1  0
 15 19  1  0
 16 20  1  0
 19 23  1  0
 20 24  2  3
 20 25  1  0
 23 26  2  3
 24 27  1  0
 26 28  1  0
 26 29  1  0
M  END
>  <PUBCHEM_COMPOUND_CID>  (1) 
735

>  <PUBCHEM_COMPOUND_CANONICALIZED>  (1) 
1

>  <PUBCHEM_CACTVS_COMPLEXITY>  (1) 
710

>  <PUBCHEM_CACTVS_HBOND_ACCEPTOR>  (1) 
7

>  <PUBCHEM_CACTVS_HBOND_DONOR>  (1) 
3

>  <PUBCHEM_CACTVS_ROTATABLE_BOND>  (1) 
14

>  <PUBCHEM_CACTVS_SUBSKEYS>  (1) 
AAADcfB4OAMAAAAAAAAAAAAAAAAAAAAAAAAAAAAAAAAAAAAAAAAAGgAACCAADACggAICAAAAARCAQiBCAIAAAAAgAAAACAAAAAgABAIAAQAAEAAAgAAIAAIAAAAAAAAAAAAAAAAAAAAAAAAAAAAAAAAAAA==

>  <PUBCHEM_IUPAC_OPENEYE_NAME>  (1) 
phosphono 3,7,11,15-tetramethylhexadeca-2,6,10,14-tetraenyl hydrogen phosphate

>  <PUBCHEM_IUPAC_CAS_NAME>  (1) 
phosphono 3,7,11,15-tetramethylhexadeca-2,6,10,14-tetraenyl hydrogen phosphate

>  <PUBCHEM_IUPAC_NAME_MARKUP>  (1) 
phosphono 3,7,11,15-tetramethylhexadeca-2,6,10,14-tetraenyl hydrogen phosphate

>  <PUBCHEM_IUPAC_NAME>  (1) 
phosphono 3,7,11,15-tetramethylhexadeca-2,6,10,14-tetraenyl hydrogen phosphate

>  <PUBCHEM_IUPAC_SYSTEMATIC_NAME>  (1) 
phosphono 3,7,11,15-tetramethylhexadeca-2,6,10,14-tetraenyl hydrogen phosphate

>  <PUBCHEM_IUPAC_TRADITIONAL_NAME>  (1) 
phosphono 3,7,11,15-tetramethylhexadeca-2,6,10,14-tetraenyl hydrogen phosphate

>  <PUBCHEM_IUPAC_INCHI>  (1) 
InChI=1S/C20H36O7P2/c1-17(2)9-6-10-18(3)11-7-12-19(4)13-8-14-20(5)15-16-26-29(24,25)27-28(21,22)23/h9,11,13,15H,6-8,10,12,14,16H2,1-5H3,(H,24,25)(H2,21,22,23)

>  <PUBCHEM_IUPAC_INCHIKEY>  (1) 
OINNEUNVOZHBOX-UHFFFAOYSA-N

>  <PUBCHEM_XLOGP3_AA>  (1) 
4.4

>  <PUBCHEM_EXACT_MASS>  (1) 
450.193627

>  <PUBCHEM_MOLECULAR_FORMULA>  (1) 
C20H36O7P2

>  <PUBCHEM_MOLECULAR_WEIGHT>  (1) 
450.4

>  <PUBCHEM_OPENEYE_CAN_SMILES>  (1) 
CC(=CCCC(=CCCC(=CCCC(=CCOP(=O)(O)OP(=O)(O)O)C)C)C)C

>  <PUBCHEM_OPENEYE_ISO_SMILES>  (1) 
CC(=CCCC(=CCCC(=CCCC(=CCOP(=O)(O)OP(=O)(O)O)C)C)C)C

>  <PUBCHEM_CACTVS_TPSA>  (1) 
113

>  <PUBCHEM_MONOISOTOPIC_WEIGHT>  (1) 
450.193627

>  <PUBCHEM_TOTAL_CHARGE>  (1) 
0

>  <PUBCHEM_HEAVY_ATOM_COUNT>  (1) 
29

>  <PUBCHEM_ATOM_DEF_STEREO_COUNT>  (1) 
0

>  <PUBCHEM_ATOM_UDEF_STEREO_COUNT>  (1) 
0

>  <PUBCHEM_BOND_DEF_STEREO_COUNT>  (1) 
0

>  <PUBCHEM_BOND_UDEF_STEREO_COUNT>  (1) 
3

>  <PUBCHEM_ISOTOPIC_ATOM_COUNT>  (1) 
0

>  <PUBCHEM_COMPONENT_COUNT>  (1) 
1

>  <PUBCHEM_CACTVS_TAUTO_COUNT>  (1) 
-1

>  <PUBCHEM_COORDINATE_TYPE>  (1) 
1
5
255

>  <PUBCHEM_BONDANNOTATIONS>  (1) 
12  18  1
14  17  1
20  24  1

$$$$
