750
     RDKit          2D

  5  4  0  0  0  0  0  0  0  0999 V2000
    1.8187   -0.7500    0.0000 O   0  0  0  0  0  0  0  0  0  0  0  0
    0.5196    1.5000    0.0000 O   0  0  0  0  0  0  0  0  0  0  0  0
   -2.0785    0.0000    0.0000 N   0  0  0  0  0  0  0  0  0  0  0  0
   -0.7794   -0.7500    0.0000 C   0  0  0  0  0  0  0  0  0  0  0  0
    0.5196   -0.0000    0.0000 C   0  0  0  0  0  0  0  0  0  0  0  0
  1  5  1  0
  2  5  2  0
  3  4  1  0
  4  5  1  0
M  END
>  <PUBCHEM_COMPOUND_CID>  (1) 
750

>  <PUBCHEM_COMPOUND_CANONICALIZED>  (1) 
1

>  <PUBCHEM_CACTVS_COMPLEXITY>  (1) 
42.9

>  <PUBCHEM_CACTVS_HBOND_ACCEPTOR>  (1) 
3

>  <PUBCHEM_CACTVS_HBOND_DONOR>  (1) 
2

>  <PUBCHEM_CACTVS_ROTATABLE_BOND>  (1) 
1

>  <PUBCHEM_CACTVS_SUBSKEYS>  (1) 
AAADcYBCMAAAAAAAAAAAAAAAAAAAAAAAAAAAAAAAAAAAAAAAAAAAHgAQCAAAAADBgAQACABAAgAIAACQCAAAAAAAAAAAAICAAAACAAAAAAAAAAAAAAAAAAAAAAAAAAAAAAAAAAAAAAAAAAAAAAAAAAAAAA==

>  <PUBCHEM_IUPAC_OPENEYE_NAME>  (1) 
2-aminoacetic acid

>  <PUBCHEM_IUPAC_CAS_NAME>  (1) 
2-aminoacetic acid

>  <PUBCHEM_IUPAC_NAME_MARKUP>  (1) 
2-aminoacetic acid

>  <PUBCHEM_IUPAC_NAME>  (1) 
2-aminoacetic acid

>  <PUBCHEM_IUPAC_SYSTEMATIC_NAME>  (1) 
2-azanylethanoic acid

>  <PUBCHEM_IUPAC_TRADITIONAL_NAME>  (1) 
2-aminoacetic acid

>  <PUBCHEM_IUPAC_INCHI>  (1) 
InChI=1S/C2H5NO2/c3-1-2(4)5/h1,3H2,(H,4,5)

>  <PUBCHEM_IUPAC_INCHIKEY>  (1) 
DHMQDGOQFOQNFH-UHFFFAOYSA-N

>  <PUBCHEM_XLOGP3>  (1) 
-3.2

>  <PUBCHEM_EXACT_MASS>  (1) 
75.032028

>  <PUBCHEM_MOLECULAR_FORMULA>  (1) 
C2H5NO2

>  <PUBCHEM_MOLECULAR_WEIGHT>  (1) 
75.07

>  <PUBCHEM_OPENEYE_CAN_SMILES>  (1) 
C(C(=O)O)N

>  <PUBCHEM_OPENEYE_ISO_SMILES>  (1) 
C(C(=O)O)N

>  <PUBCHEM_CACTVS_TPSA>  (1) 
63.3

>  <PUBCHEM_MONOISOTOPIC_WEIGHT>  (1) 
75.032028

>  <PUBCHEM_TOTAL_CHARGE>  (1) 
0

>  <PUBCHEM_HEAVY_ATOM_COUNT>  (1) 
5

>  <PUBCHEM_ATOM_DEF_STEREO_COUNT>  (1) 
0

>  <PUBCHEM_ATOM_UDEF_STEREO_COUNT>  (1) 
0

>  <PUBCHEM_BOND_DEF_STEREO_COUNT>  (1) 
0

>  <PUBCHEM_BOND_UDEF_STEREO_COUNT>  (1) 
0

>  <PUBCHEM_ISOTOPIC_ATOM_COUNT>  (1) 
0

>  <PUBCHEM_COMPONENT_COUNT>  (1) 
1

>  <PUBCHEM_CACTVS_TAUTO_COUNT>  (1) 
-1

>  <PUBCHEM_COORDINATE_TYPE>  (1) 
1
5
255

$$$$
