758
     RDKit          2D

 80 84  0  0  1  0  0  0  0  0999 V2000
   -0.9208   -3.5718    0.0000 P   0  0  0  0  0  0  0  0  0  0  0  0
    2.7178    3.3210    0.0000 O   0  0  0  0  0  0  0  0  0  0  0  0
    1.3344    5.5201    0.0000 O   0  0  0  0  0  0  0  0  0  0  0  0
    6.6405    2.7192    0.0000 O   0  0  0  0  0  0  0  0  0  0  0  0
    5.4276    0.4216    0.0000 O   0  0  0  0  0  0  0  0  0  0  0  0
   -2.5315    4.6230    0.0000 O   0  0  0  0  0  0  0  0  0  0  0  0
    6.8678   -3.2765    0.0000 O   0  0  0  0  0  0  0  0  0  0  0  0
    6.5268    5.7170    0.0000 O   0  0  0  0  0  0  0  0  0  0  0  0
    1.4481    2.5223    0.0000 O   0  0  0  0  0  0  0  0  0  0  0  0
    4.2716   -3.3750    0.0000 O   0  0  0  0  0  0  0  0  0  0  0  0
    9.2935    1.3187    0.0000 O   0  0  0  0  0  0  0  0  0  0  0  0
    9.4072   -1.6792    0.0000 O   0  0  0  0  0  0  0  0  0  0  0  0
    2.8314    0.3231    0.0000 O   0  0  0  0  0  0  0  0  0  0  0  0
    6.9815   -6.2744    0.0000 O   0  0  0  0  0  0  0  0  0  0  0  0
   -2.6452    7.6209    0.0000 O   0  0  0  0  0  0  0  0  0  0  0  0
    4.4421   -7.8717    0.0000 O   0  0  0  0  0  0  0  0  0  0  0  0
    2.8883   -1.1758    0.0000 O   0  0  0  0  0  0  0  0  0  0  0  0
    1.7891   -6.4712    0.0000 O   0  0  0  0  0  0  0  0  0  0  0  0
    0.4057   -4.2721    0.0000 O   0  0  0  0  0  0  0  0  0  0  0  0
   -4.8435   -2.9700    0.0000 O   0  0  0  0  0  0  0  0  0  0  0  0
    6.4700    7.2159    0.0000 O   0  0  0  0  0  0  0  0  0  0  0  0
   -2.2473   -2.8716    0.0000 O   0  0  0  0  0  0  0  0  0  0  0  0
   -3.6875    0.8265    0.0000 O   0  0  0  0  0  0  0  0  0  0  0  0
   -5.1277    4.5246    0.0000 O   0  0  0  0  0  0  0  0  0  0  0  0
   -4.6730   -7.4668    0.0000 O   0  0  0  0  0  0  0  0  0  0  0  0
   -7.3261   -6.0663    0.0000 O   0  0  0  0  0  0  0  0  0  0  0  0
   -1.6210   -4.8983    0.0000 O   0  0  0  0  0  0  0  0  0  0  0  0
   -0.2206   -2.2453    0.0000 O   0  0  0  0  0  0  0  0  0  0  0  0
   -7.4966   -1.5695    0.0000 O   0  0  0  0  0  0  0  0  0  0  0  0
   -8.8799    0.6296    0.0000 O   0  0  0  0  0  0  0  0  0  0  0  0
   -3.3465   -8.1670    0.0000 O   0  0  0  0  0  0  0  0  0  0  0  0
  -10.3201    4.3277    0.0000 O   0  0  0  0  0  0  0  0  0  0  0  0
    3.8738    7.1175    0.0000 N   0  0  0  0  0  0  0  0  0  0  0  0
   -1.0913    0.9249    0.0000 N   0  0  0  0  0  0  0  0  0  0  0  0
   -3.7443    2.3254    0.0000 N   0  0  0  0  0  0  0  0  0  0  0  0
   -2.1337   -5.8694    0.0000 N   0  0  0  0  0  0  0  0  0  0  0  0
   -7.7239    4.4262    0.0000 N   0  0  0  0  0  0  0  0  0  0  0  0
  -10.2633    2.8288    0.0000 N   0  0  0  0  0  0  0  0  0  0  0  0
    5.3140    3.4194    0.0000 C   0  0  0  0  0  0  0  0  0  0  0  0
    3.9306    5.6186    0.0000 C   0  0  0  0  0  0  0  0  0  0  0  0
    5.2571    4.9183    0.0000 C   0  0  0  0  0  0  0  0  0  0  0  0
    2.6609    4.8199    0.0000 C   0  0  0  0  0  0  0  0  0  0  0  0
    4.0443    2.6207    0.0000 C   0  0  0  0  0  0  0  0  0  0  0  0
    0.0647    4.7215    0.0000 C   0  0  0  0  0  0  0  0  0  0  0  0
    0.1216    3.2225    0.0000 C   0  0  0  0  0  0  0  0  0  0  0  0
    6.6973    1.2203    0.0000 C   0  0  0  0  0  0  0  0  0  0  0  0
    6.8110   -1.7776    0.0000 C   0  0  0  0  0  0  0  0  0  0  0  0
   -1.1481    2.4239    0.0000 C   0  0  0  0  0  0  0  0  0  0  0  0
   -1.2618    5.4217    0.0000 C   0  0  0  0  0  0  0  0  0  0  0  0
    8.0239    0.5200    0.0000 C   0  0  0  0  0  0  0  0  0  0  0  0
    8.0807   -0.9789    0.0000 C   0  0  0  0  0  0  0  0  0  0  0  0
    5.4845   -1.0773    0.0000 C   0  0  0  0  0  0  0  0  0  0  0  0
   -2.4747    3.1241    0.0000 C   0  0  0  0  0  0  0  0  0  0  0  0
    4.1011    1.1218    0.0000 C   0  0  0  0  0  0  0  0  0  0  0  0
    5.5981   -4.0752    0.0000 C   0  0  0  0  0  0  0  0  0  0  0  0
    5.6550   -5.5741    0.0000 C   0  0  0  0  0  0  0  0  0  0  0  0
   -1.3186    6.9206    0.0000 C   0  0  0  0  0  0  0  0  0  0  0  0
    4.3853   -6.3728    0.0000 C   0  0  0  0  0  0  0  0  0  0  0  0
    4.2148   -1.8760    0.0000 C   0  0  0  0  0  0  0  0  0  0  0  0
    3.0588   -5.6726    0.0000 C   0  0  0  0  0  0  0  0  0  0  0  0
    3.0019   -4.1736    0.0000 C   0  0  0  0  0  0  0  0  0  0  0  0
    5.1435    7.9162    0.0000 C   0  0  0  0  0  0  0  0  0  0  0  0
    1.6754   -3.4734    0.0000 C   0  0  0  0  0  0  0  0  0  0  0  0
   -2.3610    0.1263    0.0000 C   0  0  0  0  0  0  0  0  0  0  0  0
   -5.0709    3.0257    0.0000 C   0  0  0  0  0  0  0  0  0  0  0  0
    5.0866    9.4151    0.0000 C   0  0  0  0  0  0  0  0  0  0  0  0
   -3.4602   -5.1692    0.0000 C   0  0  0  0  0  0  0  0  0  0  0  0
   -4.7299   -5.9679    0.0000 C   0  0  0  0  0  0  0  0  0  0  0  0
   -3.5170   -3.6703    0.0000 C   0  0  0  0  0  0  0  0  0  0  0  0
   -6.0564   -5.2676    0.0000 C   0  0  0  0  0  0  0  0  0  0  0  0
   -6.3406    2.2270    0.0000 C   0  0  0  0  0  0  0  0  0  0  0  0
   -6.1132   -3.7687    0.0000 C   0  0  0  0  0  0  0  0  0  0  0  0
   -2.3042   -1.3727    0.0000 C   0  0  0  0  0  0  0  0  0  0  0  0
   -7.6671    2.9272    0.0000 C   0  0  0  0  0  0  0  0  0  0  0  0
   -7.4397   -3.0685    0.0000 C   0  0  0  0  0  0  0  0  0  0  0  0
   -8.9368    2.1285    0.0000 C   0  0  0  0  0  0  0  0  0  0  0  0
   -2.0768   -7.3684    0.0000 C   0  0  0  0  0  0  0  0  0  0  0  0
   -0.7503   -8.0686    0.0000 C   0  0  0  0  0  0  0  0  0  0  0  0
   -9.0504    5.1264    0.0000 C   0  0  0  0  0  0  0  0  0  0  0  0
   -9.1073    6.6253    0.0000 C   0  0  0  0  0  0  0  0  0  0  0  0
  1 19  1  0
  1 22  1  0
  1 27  1  0
  1 28  2  0
  2 42  1  0
  2 43  1  0
  3 42  1  0
  3 44  1  0
  4 39  1  0
  4 46  1  0
  5 46  1  0
  5 52  1  0
  6 49  1  0
  6 53  1  0
  7 47  1  0
  7 55  1  0
  8 41  1  0
  9 45  1  0
 10 55  1  0
 10 61  1  0
 11 50  1  0
 12 51  1  0
 13 54  1  0
 14 56  1  0
 15 57  1  0
 16 58  1  0
 17 59  1  0
 18 60  1  0
 19 63  1  0
 20 69  1  0
 20 72  1  0
 21 62  2  0
 22 69  1  0
 23 64  2  0
 24 65  2  0
 25 68  1  0
 26 70  1  0
 29 75  1  0
 30 76  2  0
 31 77  2  0
 32 79  2  0
 33 40  1  0
 33 62  1  0
 34 48  1  0
 34 64  1  0
 35 53  1  0
 35 65  1  0
 36 67  1  0
 36 77  1  0
 37 74  1  0
 37 79  1  0
 38 76  1  0
 39 41  1  0
 39 43  1  0
 40 41  1  0
 40 42  1  0
 43 54  1  0
 44 45  1  0
 44 49  1  0
 45 48  1  0
 46 50  1  0
 47 51  1  0
 47 52  1  0
 48 53  1  0
 49 57  1  0
 50 51  1  0
 52 59  1  0
 55 56  1  0
 56 58  1  0
 58 60  1  0
 60 61  1  0
 61 63  1  0
 62 66  1  0
 64 73  1  0
 65 71  1  0
 67 68  1  0
 67 69  1  0
 68 70  1  0
 70 72  1  0
 71 74  1  0
 72 75  1  0
 74 76  1  0
 77 78  1  0
 79 80  1  0
M  END
>  <PUBCHEM_COMPOUND_CID>  (1) 
758

>  <PUBCHEM_COMPOUND_CANONICALIZED>  (1) 
1

>  <PUBCHEM_CACTVS_COMPLEXITY>  (1) 
2160

>  <PUBCHEM_CACTVS_HBOND_ACCEPTOR>  (1) 
31

>  <PUBCHEM_CACTVS_HBOND_DONOR>  (1) 
20

>  <PUBCHEM_CACTVS_ROTATABLE_BOND>  (1) 
23

>  <PUBCHEM_CACTVS_SUBSKEYS>  (1) 
AAADcfB/vgIAAAAAAAAAAAAAAAAAAAAAAAAkSJEiQAAAAAAAAAAAHgAQCCAACDzxgAcCCALABxAIQAEQEIAAAAAAAAAAAIGIAAETUBoAwCA/QAAHFgCXAAH1cA8AAAAAAAAAAAAAAAAAAAAAAAAAAAAAAA==

>  <PUBCHEM_IUPAC_OPENEYE_NAME>  (1) 
[6-[6-[5-acetamido-6-[5-acetamido-6-[(3-acetamido-4-amino-4-oxo-butanoyl)amino]-4-hydroxy-2-(hydroxymethyl)tetrahydropyran-3-yl]oxy-4-hydroxy-2-(hydroxymethyl)tetrahydropyran-3-yl]oxy-4,5-dihydroxy-2-(hydroxymethyl)tetrahydropyran-3-yl]oxy-3,4,5-trihydroxy-tetrahydropyran-2-yl]methyl [3-acetamido-4,5-dihydroxy-6-(hydroxymethyl)tetrahydropyran-2-yl] hydrogen phosphate

>  <PUBCHEM_IUPAC_CAS_NAME>  (1) 
[6-[[6-[[5-acetamido-6-[[5-acetamido-6-[(3-acetamido-4-amino-1,4-dioxobutyl)amino]-4-hydroxy-2-(hydroxymethyl)-3-oxanyl]oxy]-4-hydroxy-2-(hydroxymethyl)-3-oxanyl]oxy]-4,5-dihydroxy-2-(hydroxymethyl)-3-oxanyl]oxy]-3,4,5-trihydroxy-2-oxanyl]methyl [3-acetamido-4,5-dihydroxy-6-(hydroxymethyl)-2-oxanyl] hydrogen phosphate

>  <PUBCHEM_IUPAC_NAME_MARKUP>  (1) 
[6-[6-[5-acetamido-6-[5-acetamido-6-[(3-acetamido-4-amino-4-oxobutanoyl)amino]-4-hydroxy-2-(hydroxymethyl)oxan-3-yl]oxy-4-hydroxy-2-(hydroxymethyl)oxan-3-yl]oxy-4,5-dihydroxy-2-(hydroxymethyl)oxan-3-yl]oxy-3,4,5-trihydroxyoxan-2-yl]methyl [3-acetamido-4,5-dihydroxy-6-(hydroxymethyl)oxan-2-yl] hydrogen phosphate

>  <PUBCHEM_IUPAC_NAME>  (1) 
[6-[6-[5-acetamido-6-[5-acetamido-6-[(3-acetamido-4-amino-4-oxobutanoyl)amino]-4-hydroxy-2-(hydroxymethyl)oxan-3-yl]oxy-4-hydroxy-2-(hydroxymethyl)oxan-3-yl]oxy-4,5-dihydroxy-2-(hydroxymethyl)oxan-3-yl]oxy-3,4,5-trihydroxyoxan-2-yl]methyl [3-acetamido-4,5-dihydroxy-6-(hydroxymethyl)oxan-2-yl] hydrogen phosphate

>  <PUBCHEM_IUPAC_SYSTEMATIC_NAME>  (1) 
[6-[6-[5-acetamido-6-[5-acetamido-6-[(3-acetamido-4-azanyl-4-oxidanylidene-butanoyl)amino]-2-(hydroxymethyl)-4-oxidanyl-oxan-3-yl]oxy-2-(hydroxymethyl)-4-oxidanyl-oxan-3-yl]oxy-2-(hydroxymethyl)-4,5-bis(oxidanyl)oxan-3-yl]oxy-3,4,5-tris(oxidanyl)oxan-2-yl]methyl [3-acetamido-6-(hydroxymethyl)-4,5-bis(oxidanyl)oxan-2-yl] hydrogen phosphate

>  <PUBCHEM_IUPAC_TRADITIONAL_NAME>  (1) 
[6-[6-[5-acetamido-6-[5-acetamido-6-[(3-acetamido-4-amino-4-keto-butanoyl)amino]-4-hydroxy-2-methylol-tetrahydropyran-3-yl]oxy-4-hydroxy-2-methylol-tetrahydropyran-3-yl]oxy-4,5-dihydroxy-2-methylol-tetrahydropyran-3-yl]oxy-3,4,5-trihydroxy-tetrahydropyran-2-yl]methyl (3-acetamido-4,5-dihydroxy-6-methylol-tetrahydropyran-2-yl) hydrogen phosphate

>  <PUBCHEM_IUPAC_INCHI>  (1) 
InChI=1S/C42H71N6O31P/c1-11(53)44-15(37(43)67)5-21(57)48-38-22(45-12(2)54)28(61)34(17(7-50)71-38)76-39-24(47-14(4)56)29(62)35(18(8-51)73-39)77-42-33(66)31(64)36(19(9-52)74-42)78-41-32(65)30(63)26(59)20(75-41)10-70-80(68,69)79-40-23(46-13(3)55)27(60)25(58)16(6-49)72-40/h15-20,22-36,38-42,49-52,58-66H,5-10H2,1-4H3,(H2,43,67)(H,44,53)(H,45,54)(H,46,55)(H,47,56)(H,48,57)(H,68,69)

>  <PUBCHEM_IUPAC_INCHIKEY>  (1) 
POASWCXPGBFHES-UHFFFAOYSA-N

>  <PUBCHEM_XLOGP3_AA>  (1) 
-14

>  <PUBCHEM_EXACT_MASS>  (1) 
1186.390137

>  <PUBCHEM_MOLECULAR_FORMULA>  (1) 
C42H71N6O31P

>  <PUBCHEM_MOLECULAR_WEIGHT>  (1) 
1187

>  <PUBCHEM_OPENEYE_CAN_SMILES>  (1) 
CC(=O)NC1C(C(C(OC1NC(=O)CC(C(=O)N)NC(=O)C)CO)OC2C(C(C(C(O2)CO)OC3C(C(C(C(O3)CO)OC4C(C(C(C(O4)COP(=O)(O)OC5C(C(C(C(O5)CO)O)O)NC(=O)C)O)O)O)O)O)O)NC(=O)C)O

>  <PUBCHEM_OPENEYE_ISO_SMILES>  (1) 
CC(=O)NC1C(C(C(OC1NC(=O)CC(C(=O)N)NC(=O)C)CO)OC2C(C(C(C(O2)CO)OC3C(C(C(C(O3)CO)OC4C(C(C(C(O4)COP(=O)(O)OC5C(C(C(C(O5)CO)O)O)NC(=O)C)O)O)O)O)O)O)NC(=O)C)O

>  <PUBCHEM_CACTVS_TPSA>  (1) 
581

>  <PUBCHEM_MONOISOTOPIC_WEIGHT>  (1) 
1186.390137

>  <PUBCHEM_TOTAL_CHARGE>  (1) 
0

>  <PUBCHEM_HEAVY_ATOM_COUNT>  (1) 
80

>  <PUBCHEM_ATOM_DEF_STEREO_COUNT>  (1) 
0

>  <PUBCHEM_ATOM_UDEF_STEREO_COUNT>  (1) 
26

>  <PUBCHEM_BOND_DEF_STEREO_COUNT>  (1) 
0

>  <PUBCHEM_BOND_UDEF_STEREO_COUNT>  (1) 
0

>  <PUBCHEM_ISOTOPIC_ATOM_COUNT>  (1) 
0

>  <PUBCHEM_COMPONENT_COUNT>  (1) 
1

>  <PUBCHEM_CACTVS_TAUTO_COUNT>  (1) 
-1

>  <PUBCHEM_COORDINATE_TYPE>  (1) 
1
5
255

>  <PUBCHEM_BONDANNOTATIONS>  (1) 
50  11  3
51  12  3
56  14  3
58  16  3
60  18  3
69  22  3
68  25  3
70  26  3
42  3  3
44  3  3
40  33  3
48  34  3
53  35  3
67  36  3
39  4  3
46  4  3
43  54  3
49  57  3
52  59  3
61  63  3
47  7  3
55  7  3
74  71  3
72  75  3
41  8  3
45  9  3

$$$$
