759
     RDKit          2D

 66 69  0  0  1  0  0  0  0  0999 V2000
    0.1971   -5.0619    0.0000 P   0  0  0  0  0  0  0  0  0  0  0  0
    0.6991    2.7161    0.0000 O   0  0  0  0  0  0  0  0  0  0  0  0
   -1.4625    4.1574    0.0000 O   0  0  0  0  0  0  0  0  0  0  0  0
    4.5250    3.7709    0.0000 O   0  0  0  0  0  0  0  0  0  0  0  0
    4.3577    1.1782    0.0000 O   0  0  0  0  0  0  0  0  0  0  0  0
   -4.6236    1.7580    0.0000 O   0  0  0  0  0  0  0  0  0  0  0  0
    7.1841   -1.6077    0.0000 O   0  0  0  0  0  0  0  0  0  0  0  0
    3.1955    6.4602    0.0000 O   0  0  0  0  0  0  0  0  0  0  0  0
   -0.1330    1.4681    0.0000 O   0  0  0  0  0  0  0  0  0  0  0  0
    4.8551   -2.7591    0.0000 O   0  0  0  0  0  0  0  0  0  0  0  0
    7.5188    3.5777    0.0000 O   0  0  0  0  0  0  0  0  0  0  0  0
    8.8483    0.8883    0.0000 O   0  0  0  0  0  0  0  0  0  0  0  0
    2.0287    0.0268    0.0000 O   0  0  0  0  0  0  0  0  0  0  0  0
    8.5136   -4.2970    0.0000 O   0  0  0  0  0  0  0  0  0  0  0  0
   -5.9531    4.4473    0.0000 O   0  0  0  0  0  0  0  0  0  0  0  0
    2.6934   -1.3178    0.0000 O   0  0  0  0  0  0  0  0  0  0  0  0
    6.8494   -6.7931    0.0000 O   0  0  0  0  0  0  0  0  0  0  0  0
    3.8556   -6.5998    0.0000 O   0  0  0  0  0  0  0  0  0  0  0  0
    1.6939   -5.1585    0.0000 O   0  0  0  0  0  0  0  0  0  0  0  0
    2.5308    7.8049    0.0000 O   0  0  0  0  0  0  0  0  0  0  0  0
   -4.1262   -2.1793    0.0000 O   0  0  0  0  0  0  0  0  0  0  0  0
   -6.9526    0.6066    0.0000 O   0  0  0  0  0  0  0  0  0  0  0  0
    0.2937   -3.5650    0.0000 O   0  0  0  0  0  0  0  0  0  0  0  0
   -1.2998   -4.9653    0.0000 O   0  0  0  0  0  0  0  0  0  0  0  0
    0.1004   -6.5588    0.0000 O   0  0  0  0  0  0  0  0  0  0  0  0
   -8.7842   -4.4821    0.0000 O   0  0  0  0  0  0  0  0  0  0  0  0
  -11.6107   -1.6962    0.0000 O   0  0  0  0  0  0  0  0  0  0  0  0
    0.2018    6.6535    0.0000 N   0  0  0  0  0  0  0  0  0  0  0  0
   -1.7972   -1.0279    0.0000 N   0  0  0  0  0  0  0  0  0  0  0  0
   -4.7910   -0.8347    0.0000 N   0  0  0  0  0  0  0  0  0  0  0  0
   -9.2816   -0.5448    0.0000 N   0  0  0  0  0  0  0  0  0  0  0  0
  -10.9459   -3.0409    0.0000 N   0  0  0  0  0  0  0  0  0  0  0  0
    3.0282    3.8675    0.0000 C   0  0  0  0  0  0  0  0  0  0  0  0
    0.8665    5.3088    0.0000 C   0  0  0  0  0  0  0  0  0  0  0  0
    2.3634    5.2122    0.0000 C   0  0  0  0  0  0  0  0  0  0  0  0
    0.0344    4.0608    0.0000 C   0  0  0  0  0  0  0  0  0  0  0  0
    2.1960    2.6195    0.0000 C   0  0  0  0  0  0  0  0  0  0  0  0
   -2.2946    2.9094    0.0000 C   0  0  0  0  0  0  0  0  0  0  0  0
   -1.6299    1.5647    0.0000 C   0  0  0  0  0  0  0  0  0  0  0  0
    5.1898    2.4263    0.0000 C   0  0  0  0  0  0  0  0  0  0  0  0
    6.5193   -0.2631    0.0000 C   0  0  0  0  0  0  0  0  0  0  0  0
   -2.4620    0.3167    0.0000 C   0  0  0  0  0  0  0  0  0  0  0  0
   -3.7915    3.0060    0.0000 C   0  0  0  0  0  0  0  0  0  0  0  0
    6.6867    2.3296    0.0000 C   0  0  0  0  0  0  0  0  0  0  0  0
    7.3514    0.9850    0.0000 C   0  0  0  0  0  0  0  0  0  0  0  0
    5.0224   -0.1664    0.0000 C   0  0  0  0  0  0  0  0  0  0  0  0
   -3.9589    0.4133    0.0000 C   0  0  0  0  0  0  0  0  0  0  0  0
    2.8608    1.2749    0.0000 C   0  0  0  0  0  0  0  0  0  0  0  0
    6.3520   -2.8557    0.0000 C   0  0  0  0  0  0  0  0  0  0  0  0
    7.0167   -4.2004    0.0000 C   0  0  0  0  0  0  0  0  0  0  0  0
   -4.4563    4.3507    0.0000 C   0  0  0  0  0  0  0  0  0  0  0  0
    4.1903   -1.4144    0.0000 C   0  0  0  0  0  0  0  0  0  0  0  0
    6.1846   -5.4484    0.0000 C   0  0  0  0  0  0  0  0  0  0  0  0
    4.6877   -5.3518    0.0000 C   0  0  0  0  0  0  0  0  0  0  0  0
    4.0230   -4.0071    0.0000 C   0  0  0  0  0  0  0  0  0  0  0  0
    1.0339    7.9015    0.0000 C   0  0  0  0  0  0  0  0  0  0  0  0
    2.5261   -3.9105    0.0000 C   0  0  0  0  0  0  0  0  0  0  0  0
   -2.6293   -2.2760    0.0000 C   0  0  0  0  0  0  0  0  0  0  0  0
   -6.2879   -0.7381    0.0000 C   0  0  0  0  0  0  0  0  0  0  0  0
    0.3691    9.2462    0.0000 C   0  0  0  0  0  0  0  0  0  0  0  0
   -7.1200   -1.9861    0.0000 C   0  0  0  0  0  0  0  0  0  0  0  0
   -1.9646   -3.6206    0.0000 C   0  0  0  0  0  0  0  0  0  0  0  0
   -8.6169   -1.8895    0.0000 C   0  0  0  0  0  0  0  0  0  0  0  0
   -9.4490   -3.1375    0.0000 C   0  0  0  0  0  0  0  0  0  0  0  0
  -10.7785   -0.4482    0.0000 C   0  0  0  0  0  0  0  0  0  0  0  0
  -11.4433    0.8965    0.0000 C   0  0  0  0  0  0  0  0  0  0  0  0
  1 19  1  0
  1 23  1  0
  1 24  1  0
  1 25  2  0
  2 36  1  0
  2 37  1  0
  3 36  1  0
  3 38  1  0
  4 33  1  0
  4 40  1  0
  5 40  1  0
  5 46  1  0
  6 43  1  0
  6 47  1  0
  7 41  1  0
  7 49  1  0
  8 35  1  0
  9 39  1  0
 10 49  1  0
 10 55  1  0
 11 44  1  0
 12 45  1  0
 13 48  1  0
 14 50  1  0
 15 51  1  0
 16 52  1  0
 17 53  1  0
 18 54  1  0
 19 57  1  0
 20 56  2  0
 21 58  2  0
 22 59  2  0
 26 64  2  0
 27 65  2  0
 28 34  1  0
 28 56  1  0
 29 42  1  0
 29 58  1  0
 30 47  1  0
 30 59  1  0
 31 63  1  0
 31 65  1  0
 32 64  1  0
 33 35  1  0
 33 37  1  0
 34 35  1  0
 34 36  1  0
 37 48  1  0
 38 39  1  0
 38 43  1  0
 39 42  1  0
 40 44  1  0
 41 45  1  0
 41 46  1  0
 42 47  1  0
 43 51  1  0
 44 45  1  0
 46 52  1  0
 49 50  1  0
 50 53  1  0
 53 54  1  0
 54 55  1  0
 55 57  1  0
 56 60  1  0
 58 62  1  0
 59 61  1  0
 61 63  1  0
 63 64  1  0
 65 66  1  0
M  END
>  <PUBCHEM_COMPOUND_CID>  (1) 
759

>  <PUBCHEM_COMPOUND_CANONICALIZED>  (1) 
1

>  <PUBCHEM_CACTVS_COMPLEXITY>  (1) 
1720

>  <PUBCHEM_CACTVS_HBOND_ACCEPTOR>  (1) 
26

>  <PUBCHEM_CACTVS_HBOND_DONOR>  (1) 
17

>  <PUBCHEM_CACTVS_ROTATABLE_BOND>  (1) 
19

>  <PUBCHEM_CACTVS_SUBSKEYS>  (1) 
AAADcfB/vgIAAAAAAAAAAAAAAAAAAAAAAAAkSJEgAAAAAAAAAAAAHgAQCCAACDzxgAcCCALABxAIQAEQEIAAAAAAAAAAAIGIAAETUBoAwCA/QAAHFgCXAAH1cA8AAAAAAAAAAAAAAAAAAAAAAAAAAAAAAA==

>  <PUBCHEM_IUPAC_OPENEYE_NAME>  (1) 
[6-[6-[5-acetamido-6-[5-acetamido-6-[(3-acetamido-4-amino-4-oxo-butanoyl)amino]-4-hydroxy-2-(hydroxymethyl)tetrahydropyran-3-yl]oxy-4-hydroxy-2-(hydroxymethyl)tetrahydropyran-3-yl]oxy-4,5-dihydroxy-2-(hydroxymethyl)tetrahydropyran-3-yl]oxy-3,4,5-trihydroxy-tetrahydropyran-2-yl]methyl dihydrogen phosphate

>  <PUBCHEM_IUPAC_CAS_NAME>  (1) 
[6-[[6-[[5-acetamido-6-[[5-acetamido-6-[(3-acetamido-4-amino-1,4-dioxobutyl)amino]-4-hydroxy-2-(hydroxymethyl)-3-oxanyl]oxy]-4-hydroxy-2-(hydroxymethyl)-3-oxanyl]oxy]-4,5-dihydroxy-2-(hydroxymethyl)-3-oxanyl]oxy]-3,4,5-trihydroxy-2-oxanyl]methyl dihydrogen phosphate

>  <PUBCHEM_IUPAC_NAME_MARKUP>  (1) 
[6-[6-[5-acetamido-6-[5-acetamido-6-[(3-acetamido-4-amino-4-oxobutanoyl)amino]-4-hydroxy-2-(hydroxymethyl)oxan-3-yl]oxy-4-hydroxy-2-(hydroxymethyl)oxan-3-yl]oxy-4,5-dihydroxy-2-(hydroxymethyl)oxan-3-yl]oxy-3,4,5-trihydroxyoxan-2-yl]methyl dihydrogen phosphate

>  <PUBCHEM_IUPAC_NAME>  (1) 
[6-[6-[5-acetamido-6-[5-acetamido-6-[(3-acetamido-4-amino-4-oxobutanoyl)amino]-4-hydroxy-2-(hydroxymethyl)oxan-3-yl]oxy-4-hydroxy-2-(hydroxymethyl)oxan-3-yl]oxy-4,5-dihydroxy-2-(hydroxymethyl)oxan-3-yl]oxy-3,4,5-trihydroxyoxan-2-yl]methyl dihydrogen phosphate

>  <PUBCHEM_IUPAC_SYSTEMATIC_NAME>  (1) 
[6-[6-[5-acetamido-6-[5-acetamido-6-[(3-acetamido-4-azanyl-4-oxidanylidene-butanoyl)amino]-2-(hydroxymethyl)-4-oxidanyl-oxan-3-yl]oxy-2-(hydroxymethyl)-4-oxidanyl-oxan-3-yl]oxy-2-(hydroxymethyl)-4,5-bis(oxidanyl)oxan-3-yl]oxy-3,4,5-tris(oxidanyl)oxan-2-yl]methyl dihydrogen phosphate

>  <PUBCHEM_IUPAC_TRADITIONAL_NAME>  (1) 
[6-[6-[5-acetamido-6-[5-acetamido-6-[(3-acetamido-4-amino-4-keto-butanoyl)amino]-4-hydroxy-2-methylol-tetrahydropyran-3-yl]oxy-4-hydroxy-2-methylol-tetrahydropyran-3-yl]oxy-4,5-dihydroxy-2-methylol-tetrahydropyran-3-yl]oxy-3,4,5-trihydroxy-tetrahydropyran-2-yl]methyl dihydrogen phosphate

>  <PUBCHEM_IUPAC_INCHI>  (1) 
InChI=1S/C34H58N5O26P/c1-9(43)36-12(30(35)54)4-17(46)39-31-18(37-10(2)44)21(48)27(13(5-40)59-31)63-32-19(38-11(3)45)22(49)28(14(6-41)60-32)64-34-26(53)24(51)29(15(7-42)61-34)65-33-25(52)23(50)20(47)16(62-33)8-58-66(55,56)57/h12-16,18-29,31-34,40-42,47-53H,4-8H2,1-3H3,(H2,35,54)(H,36,43)(H,37,44)(H,38,45)(H,39,46)(H2,55,56,57)

>  <PUBCHEM_IUPAC_INCHIKEY>  (1) 
HCAJSENPKKZRLZ-UHFFFAOYSA-N

>  <PUBCHEM_XLOGP3_AA>  (1) 
-12.4

>  <PUBCHEM_EXACT_MASS>  (1) 
983.310764

>  <PUBCHEM_MOLECULAR_FORMULA>  (1) 
C34H58N5O26P

>  <PUBCHEM_MOLECULAR_WEIGHT>  (1) 
983.8

>  <PUBCHEM_OPENEYE_CAN_SMILES>  (1) 
CC(=O)NC1C(C(C(OC1NC(=O)CC(C(=O)N)NC(=O)C)CO)OC2C(C(C(C(O2)CO)OC3C(C(C(C(O3)CO)OC4C(C(C(C(O4)COP(=O)(O)O)O)O)O)O)O)O)NC(=O)C)O

>  <PUBCHEM_OPENEYE_ISO_SMILES>  (1) 
CC(=O)NC1C(C(C(OC1NC(=O)CC(C(=O)N)NC(=O)C)CO)OC2C(C(C(C(O2)CO)OC3C(C(C(C(O3)CO)OC4C(C(C(C(O4)COP(=O)(O)O)O)O)O)O)O)O)NC(=O)C)O

>  <PUBCHEM_CACTVS_TPSA>  (1) 
493

>  <PUBCHEM_MONOISOTOPIC_WEIGHT>  (1) 
983.310764

>  <PUBCHEM_TOTAL_CHARGE>  (1) 
0

>  <PUBCHEM_HEAVY_ATOM_COUNT>  (1) 
66

>  <PUBCHEM_ATOM_DEF_STEREO_COUNT>  (1) 
0

>  <PUBCHEM_ATOM_UDEF_STEREO_COUNT>  (1) 
21

>  <PUBCHEM_BOND_DEF_STEREO_COUNT>  (1) 
0

>  <PUBCHEM_BOND_UDEF_STEREO_COUNT>  (1) 
0

>  <PUBCHEM_ISOTOPIC_ATOM_COUNT>  (1) 
0

>  <PUBCHEM_COMPONENT_COUNT>  (1) 
1

>  <PUBCHEM_CACTVS_TAUTO_COUNT>  (1) 
-1

>  <PUBCHEM_COORDINATE_TYPE>  (1) 
1
5
255

>  <PUBCHEM_BONDANNOTATIONS>  (1) 
44  11  3
45  12  3
50  14  3
53  17  3
54  18  3
34  28  3
42  29  3
36  3  3
38  3  3
47  30  3
37  48  3
33  4  3
40  4  3
43  51  3
46  52  3
55  57  3
63  61  3
41  7  3
49  7  3
35  8  3
39  9  3

$$$$
