781
     RDKit          2D

  3  2  0  0  0  0  0  0  0  0999 V2000
   -1.5000    0.0000    0.0000 S   0  0  0  0  0  0  0  0  0  0  0  0
    1.5000    0.0000    0.0000 N   0  0  0  0  0  0  0  0  0  0  0  0
    0.0000   -0.0000    0.0000 C   0  0  0  0  0  0  0  0  0  0  0  0
  1  3  1  0
  2  3  3  0
M  END
>  <PUBCHEM_COMPOUND_CID>  (1) 
781

>  <PUBCHEM_COMPOUND_CANONICALIZED>  (1) 
1

>  <PUBCHEM_CACTVS_COMPLEXITY>  (1) 
31.3

>  <PUBCHEM_CACTVS_HBOND_ACCEPTOR>  (1) 
2

>  <PUBCHEM_CACTVS_HBOND_DONOR>  (1) 
1

>  <PUBCHEM_CACTVS_ROTATABLE_BOND>  (1) 
0

>  <PUBCHEM_CACTVS_SUBSKEYS>  (1) 
AAADcQACAABAAAAAAAAAAAAAAAAAAAAAAAAAAAAAAAAAAAAAAAAABAQAAAAAAAAAAAAAAAAAAAQQAAAAAAAAAAAAAAAAAAAAAAAAAAAAAAAAAAAAAAAAAAAAAAAAAAAAAAAAAAAAAAAAAAAAAAAAAAAAAA==

>  <PUBCHEM_IUPAC_OPENEYE_NAME>  (1) 
thiocyanic acid

>  <PUBCHEM_IUPAC_CAS_NAME>  (1) 
thiocyanic acid

>  <PUBCHEM_IUPAC_NAME_MARKUP>  (1) 
thiocyanic acid

>  <PUBCHEM_IUPAC_NAME>  (1) 
thiocyanic acid

>  <PUBCHEM_IUPAC_SYSTEMATIC_NAME>  (1) 
thiocyanic acid

>  <PUBCHEM_IUPAC_TRADITIONAL_NAME>  (1) 
thiocyanic acid

>  <PUBCHEM_IUPAC_INCHI>  (1) 
InChI=1S/CHNS/c2-1-3/h3H

>  <PUBCHEM_IUPAC_INCHIKEY>  (1) 
ZMZDMBWJUHKJPS-UHFFFAOYSA-N

>  <PUBCHEM_XLOGP3_AA>  (1) 
0.6

>  <PUBCHEM_EXACT_MASS>  (1) 
58.98297

>  <PUBCHEM_MOLECULAR_FORMULA>  (1) 
CHNS

>  <PUBCHEM_MOLECULAR_WEIGHT>  (1) 
59.09

>  <PUBCHEM_OPENEYE_CAN_SMILES>  (1) 
C(#N)S

>  <PUBCHEM_OPENEYE_ISO_SMILES>  (1) 
C(#N)S

>  <PUBCHEM_CACTVS_TPSA>  (1) 
24.8

>  <PUBCHEM_MONOISOTOPIC_WEIGHT>  (1) 
58.98297

>  <PUBCHEM_TOTAL_CHARGE>  (1) 
0

>  <PUBCHEM_HEAVY_ATOM_COUNT>  (1) 
3

>  <PUBCHEM_ATOM_DEF_STEREO_COUNT>  (1) 
0

>  <PUBCHEM_ATOM_UDEF_STEREO_COUNT>  (1) 
0

>  <PUBCHEM_BOND_DEF_STEREO_COUNT>  (1) 
0

>  <PUBCHEM_BOND_UDEF_STEREO_COUNT>  (1) 
0

>  <PUBCHEM_ISOTOPIC_ATOM_COUNT>  (1) 
0

>  <PUBCHEM_COMPONENT_COUNT>  (1) 
1

>  <PUBCHEM_CACTVS_TAUTO_COUNT>  (1) 
-1

>  <PUBCHEM_COORDINATE_TYPE>  (1) 
1
5
255

$$$$
