783
     RDKit          2D

  2  1  0  0  0  0  0  0  0  0999 V2000
    0.7500    0.0000    0.0000 H   0  0  0  0  0  0  0  0  0  0  0  0
   -0.7500    0.0000    0.0000 H   0  0  0  0  0  0  0  0  0  0  0  0
  1  2  1  0
M  END
>  <PUBCHEM_COMPOUND_CID>  (1) 
783

>  <PUBCHEM_COMPOUND_CANONICALIZED>  (1) 
1

>  <PUBCHEM_CACTVS_COMPLEXITY>  (1) 
0

>  <PUBCHEM_CACTVS_HBOND_ACCEPTOR>  (1) 
0

>  <PUBCHEM_CACTVS_HBOND_DONOR>  (1) 
0

>  <PUBCHEM_CACTVS_ROTATABLE_BOND>  (1) 
0

>  <PUBCHEM_CACTVS_SUBSKEYS>  (1) 
AAADcQAAAAAAAAAAAAAAAAAAAAAAAAAAAAAAAAAAAAAAAAAAAAAAAAAAAAAAAAAAAAAAAAAAAAAAAAAAAAAAAAAAAAAAAAAAAAAAAAAAAAAAAAAAAAAAAAAAAAAAAAAAAAAAAAAAAAAAAAAAAAAAAAAAAA==

>  <PUBCHEM_IUPAC_OPENEYE_NAME>  (1) 
molecular hydrogen

>  <PUBCHEM_IUPAC_CAS_NAME>  (1) 
molecular hydrogen

>  <PUBCHEM_IUPAC_NAME_MARKUP>  (1) 
molecular hydrogen

>  <PUBCHEM_IUPAC_NAME>  (1) 
molecular hydrogen

>  <PUBCHEM_IUPAC_SYSTEMATIC_NAME>  (1) 
molecular hydrogen

>  <PUBCHEM_IUPAC_TRADITIONAL_NAME>  (1) 
molecular hydrogen

>  <PUBCHEM_IUPAC_INCHI>  (1) 
InChI=1S/H2/h1H

>  <PUBCHEM_IUPAC_INCHIKEY>  (1) 
UFHFLCQGNIYNRP-UHFFFAOYSA-N

>  <PUBCHEM_XLOGP3_AA>  (1) 
0

>  <PUBCHEM_EXACT_MASS>  (1) 
2.01565

>  <PUBCHEM_MOLECULAR_FORMULA>  (1) 
H2

>  <PUBCHEM_MOLECULAR_WEIGHT>  (1) 
2.016

>  <PUBCHEM_OPENEYE_CAN_SMILES>  (1) 
[HH]

>  <PUBCHEM_OPENEYE_ISO_SMILES>  (1) 
[HH]

>  <PUBCHEM_CACTVS_TPSA>  (1) 
0

>  <PUBCHEM_MONOISOTOPIC_WEIGHT>  (1) 
2.01565

>  <PUBCHEM_TOTAL_CHARGE>  (1) 
0

>  <PUBCHEM_HEAVY_ATOM_COUNT>  (1) 
0

>  <PUBCHEM_ATOM_DEF_STEREO_COUNT>  (1) 
0

>  <PUBCHEM_ATOM_UDEF_STEREO_COUNT>  (1) 
0

>  <PUBCHEM_BOND_DEF_STEREO_COUNT>  (1) 
0

>  <PUBCHEM_BOND_UDEF_STEREO_COUNT>  (1) 
0

>  <PUBCHEM_ISOTOPIC_ATOM_COUNT>  (1) 
0

>  <PUBCHEM_COMPONENT_COUNT>  (1) 
1

>  <PUBCHEM_CACTVS_TAUTO_COUNT>  (1) 
-1

>  <PUBCHEM_COORDINATE_TYPE>  (1) 
1
5
255

$$$$
