79
     RDKit          2D

  8  8  0  0  0  0  0  0  0  0999 V2000
    1.6875   -1.2990    0.0000 N   0  0  0  0  0  0  0  0  0  0  0  0
   -3.5625   -0.0000    0.0000 N   0  0  0  0  0  0  0  0  0  0  0  0
   -0.5625    0.0000    0.0000 C   0  0  0  0  0  0  0  0  0  0  0  0
    0.1875    1.2990    0.0000 C   0  0  0  0  0  0  0  0  0  0  0  0
    1.6875    1.2990    0.0000 C   0  0  0  0  0  0  0  0  0  0  0  0
    0.1875   -1.2990    0.0000 C   0  0  0  0  0  0  0  0  0  0  0  0
    2.4375    0.0000    0.0000 C   0  0  0  0  0  0  0  0  0  0  0  0
   -2.0625    0.0000    0.0000 C   0  0  0  0  0  0  0  0  0  0  0  0
  1  6  2  0
  1  7  1  0
  2  8  3  0
  3  4  2  0
  3  6  1  0
  3  8  1  0
  4  5  1  0
  5  7  2  0
M  END
>  <PUBCHEM_COMPOUND_CID>  (1) 
79

>  <PUBCHEM_COMPOUND_CANONICALIZED>  (1) 
1

>  <PUBCHEM_CACTVS_COMPLEXITY>  (1) 
111

>  <PUBCHEM_CACTVS_HBOND_ACCEPTOR>  (1) 
2

>  <PUBCHEM_CACTVS_HBOND_DONOR>  (1) 
0

>  <PUBCHEM_CACTVS_ROTATABLE_BOND>  (1) 
0

>  <PUBCHEM_CACTVS_SUBSKEYS>  (1) 
AAADcYBjAAAAAAAAAAAAAAAAAAAAAAAAAAAsAAAAAAAAAAABgAAAHAAAAAAADADBGgQ8gJIIEACwBjBnRACigCAxAiAI2CA4ZJgIoOLAkZGEIAhggADIyA4QAAAMAAAAAAAAAAAAAAAAAAAAAAAAAAAAAA==

>  <PUBCHEM_IUPAC_OPENEYE_NAME>  (1) 
pyridine-3-carbonitrile

>  <PUBCHEM_IUPAC_CAS_NAME>  (1) 
3-pyridinecarbonitrile

>  <PUBCHEM_IUPAC_NAME_MARKUP>  (1) 
pyridine-3-carbonitrile

>  <PUBCHEM_IUPAC_NAME>  (1) 
pyridine-3-carbonitrile

>  <PUBCHEM_IUPAC_SYSTEMATIC_NAME>  (1) 
pyridine-3-carbonitrile

>  <PUBCHEM_IUPAC_TRADITIONAL_NAME>  (1) 
nicotinonitrile

>  <PUBCHEM_IUPAC_INCHI>  (1) 
InChI=1S/C6H4N2/c7-4-6-2-1-3-8-5-6/h1-3,5H

>  <PUBCHEM_IUPAC_INCHIKEY>  (1) 
GZPHSAQLYPIAIN-UHFFFAOYSA-N

>  <PUBCHEM_XLOGP3>  (1) 
0.2

>  <PUBCHEM_EXACT_MASS>  (1) 
104.037448

>  <PUBCHEM_MOLECULAR_FORMULA>  (1) 
C6H4N2

>  <PUBCHEM_MOLECULAR_WEIGHT>  (1) 
104.11

>  <PUBCHEM_OPENEYE_CAN_SMILES>  (1) 
C1=CC(=CN=C1)C#N

>  <PUBCHEM_OPENEYE_ISO_SMILES>  (1) 
C1=CC(=CN=C1)C#N

>  <PUBCHEM_CACTVS_TPSA>  (1) 
36.7

>  <PUBCHEM_MONOISOTOPIC_WEIGHT>  (1) 
104.037448

>  <PUBCHEM_TOTAL_CHARGE>  (1) 
0

>  <PUBCHEM_HEAVY_ATOM_COUNT>  (1) 
8

>  <PUBCHEM_ATOM_DEF_STEREO_COUNT>  (1) 
0

>  <PUBCHEM_ATOM_UDEF_STEREO_COUNT>  (1) 
0

>  <PUBCHEM_BOND_DEF_STEREO_COUNT>  (1) 
0

>  <PUBCHEM_BOND_UDEF_STEREO_COUNT>  (1) 
0

>  <PUBCHEM_ISOTOPIC_ATOM_COUNT>  (1) 
0

>  <PUBCHEM_COMPONENT_COUNT>  (1) 
1

>  <PUBCHEM_CACTVS_TAUTO_COUNT>  (1) 
-1

>  <PUBCHEM_COORDINATE_TYPE>  (1) 
1
5
255

>  <PUBCHEM_BONDANNOTATIONS>  (1) 
1  6  8
1  7  8
3  4  8
3  6  8
4  5  8
5  7  8

$$$$
