793
     RDKit          2D

 11 11  0  0  1  0  0  0  0  0999 V2000
    0.9461   -1.6947    0.0000 O   0  0  0  0  0  0  0  0  0  0  0  0
    3.8304   -0.8698    0.0000 O   0  0  0  0  0  0  0  0  0  0  0  0
    3.1161    1.6281    0.0000 O   0  0  0  0  0  0  0  0  0  0  0  0
   -1.7245   -1.0184    0.0000 N   0  0  0  0  0  0  0  0  0  0  0  0
   -3.6360    0.4772    0.0000 N   0  0  0  0  0  0  0  0  0  0  0  0
    0.2317    0.8032    0.0000 C   0  0  0  0  0  0  0  0  0  0  0  0
    1.3100   -0.2395    0.0000 C   0  0  0  0  0  0  0  0  0  0  0  0
   -1.2105    0.3908    0.0000 C   0  0  0  0  0  0  0  0  0  0  0  0
   -2.3919    1.3151    0.0000 C   0  0  0  0  0  0  0  0  0  0  0  0
    2.7522    0.1729    0.0000 C   0  0  0  0  0  0  0  0  0  0  0  0
   -3.2236   -0.9650    0.0000 C   0  0  0  0  0  0  0  0  0  0  0  0
  1  7  1  0
  2 10  1  0
  3 10  2  0
  4  8  1  0
  4 11  1  0
  5  9  1  0
  5 11  2  0
  6  7  1  0
  6  8  1  0
  7 10  1  0
  8  9  2  0
M  END
>  <PUBCHEM_COMPOUND_CID>  (1) 
793

>  <PUBCHEM_COMPOUND_CANONICALIZED>  (1) 
1

>  <PUBCHEM_CACTVS_COMPLEXITY>  (1) 
151

>  <PUBCHEM_CACTVS_HBOND_ACCEPTOR>  (1) 
4

>  <PUBCHEM_CACTVS_HBOND_DONOR>  (1) 
3

>  <PUBCHEM_CACTVS_ROTATABLE_BOND>  (1) 
3

>  <PUBCHEM_CACTVS_SUBSKEYS>  (1) 
AAADccBjMAAAAAAAAAAAAAAAAAAAAWAAAAAAAAAAAAAAAAABgAAAHgAQCAAACBzhlgYtmBbJkgCoART3bAIAgC2xEqABUYF4cAiBeBJAmQCUQAAO0ANBQCC8EQIAAAAAAAAAAAAAAAAAAAAAAAAAAAAAAA==

>  <PUBCHEM_IUPAC_OPENEYE_NAME>  (1) 
2-hydroxy-3-(1H-imidazol-5-yl)propanoic acid

>  <PUBCHEM_IUPAC_CAS_NAME>  (1) 
2-hydroxy-3-(1H-imidazol-5-yl)propanoic acid

>  <PUBCHEM_IUPAC_NAME_MARKUP>  (1) 
2-hydroxy-3-(1<I>H</I>-imidazol-5-yl)propanoic acid

>  <PUBCHEM_IUPAC_NAME>  (1) 
2-hydroxy-3-(1H-imidazol-5-yl)propanoic acid

>  <PUBCHEM_IUPAC_SYSTEMATIC_NAME>  (1) 
3-(1H-imidazol-5-yl)-2-oxidanyl-propanoic acid

>  <PUBCHEM_IUPAC_TRADITIONAL_NAME>  (1) 
2-hydroxy-3-(1H-imidazol-5-yl)propionic acid

>  <PUBCHEM_IUPAC_INCHI>  (1) 
InChI=1S/C6H8N2O3/c9-5(6(10)11)1-4-2-7-3-8-4/h2-3,5,9H,1H2,(H,7,8)(H,10,11)

>  <PUBCHEM_IUPAC_INCHIKEY>  (1) 
ACZFBYCNAVEFLC-UHFFFAOYSA-N

>  <PUBCHEM_XLOGP3_AA>  (1) 
-0.7

>  <PUBCHEM_EXACT_MASS>  (1) 
156.053492

>  <PUBCHEM_MOLECULAR_FORMULA>  (1) 
C6H8N2O3

>  <PUBCHEM_MOLECULAR_WEIGHT>  (1) 
156.14

>  <PUBCHEM_OPENEYE_CAN_SMILES>  (1) 
C1=C(NC=N1)CC(C(=O)O)O

>  <PUBCHEM_OPENEYE_ISO_SMILES>  (1) 
C1=C(NC=N1)CC(C(=O)O)O

>  <PUBCHEM_CACTVS_TPSA>  (1) 
86.2

>  <PUBCHEM_MONOISOTOPIC_WEIGHT>  (1) 
156.053492

>  <PUBCHEM_TOTAL_CHARGE>  (1) 
0

>  <PUBCHEM_HEAVY_ATOM_COUNT>  (1) 
11

>  <PUBCHEM_ATOM_DEF_STEREO_COUNT>  (1) 
0

>  <PUBCHEM_ATOM_UDEF_STEREO_COUNT>  (1) 
1

>  <PUBCHEM_BOND_DEF_STEREO_COUNT>  (1) 
0

>  <PUBCHEM_BOND_UDEF_STEREO_COUNT>  (1) 
0

>  <PUBCHEM_ISOTOPIC_ATOM_COUNT>  (1) 
0

>  <PUBCHEM_COMPONENT_COUNT>  (1) 
1

>  <PUBCHEM_CACTVS_TAUTO_COUNT>  (1) 
-1

>  <PUBCHEM_COORDINATE_TYPE>  (1) 
1
5
255

>  <PUBCHEM_BONDANNOTATIONS>  (1) 
7  1  3
4  11  8
4  8  8
5  11  8
5  9  8
8  9  8

$$$$
