798
     RDKit          2D

  9 10  0  0  0  0  0  0  0  0999 V2000
   -1.7191   -1.2135    0.0000 N   0  0  0  0  0  0  0  0  0  0  0  0
   -0.2925   -0.7500    0.0000 C   0  0  0  0  0  0  0  0  0  0  0  0
   -0.2925    0.7500    0.0000 C   0  0  0  0  0  0  0  0  0  0  0  0
   -1.7191    1.2135    0.0000 C   0  0  0  0  0  0  0  0  0  0  0  0
    1.0065   -1.5000    0.0000 C   0  0  0  0  0  0  0  0  0  0  0  0
    1.0065    1.5000    0.0000 C   0  0  0  0  0  0  0  0  0  0  0  0
   -2.6008   -0.0000    0.0000 C   0  0  0  0  0  0  0  0  0  0  0  0
    2.3055   -0.7500    0.0000 C   0  0  0  0  0  0  0  0  0  0  0  0
    2.3055    0.7500    0.0000 C   0  0  0  0  0  0  0  0  0  0  0  0
  1  2  1  0
  1  7  1  0
  2  3  2  0
  2  5  1  0
  3  4  1  0
  3  6  1  0
  4  7  2  0
  5  8  2  0
  6  9  2  0
  8  9  1  0
M  END
>  <PUBCHEM_COMPOUND_CID>  (1) 
798

>  <PUBCHEM_COMPOUND_CANONICALIZED>  (1) 
1

>  <PUBCHEM_CACTVS_COMPLEXITY>  (1) 
101

>  <PUBCHEM_CACTVS_HBOND_ACCEPTOR>  (1) 
0

>  <PUBCHEM_CACTVS_HBOND_DONOR>  (1) 
1

>  <PUBCHEM_CACTVS_ROTATABLE_BOND>  (1) 
0

>  <PUBCHEM_CACTVS_SUBSKEYS>  (1) 
AAADcYByAAAAAAAAAAAAAAAAAAAAAWAAAAAwAAAAAAAAAFgB8AAAHAAQAAAADAjBHgQ8wPLJkACgAzRnRACCgCAxAiAI2aA4ZJgIIOLAkZGEIAhgkADIyAcQgIAOAAAAAAACAAAAAAAAAAQAAAAAAAAAAA==

>  <PUBCHEM_IUPAC_OPENEYE_NAME>  (1) 
indole

>  <PUBCHEM_IUPAC_CAS_NAME>  (1) 
1H-indole

>  <PUBCHEM_IUPAC_NAME_MARKUP>  (1) 
1<I>H</I>-indole

>  <PUBCHEM_IUPAC_NAME>  (1) 
1H-indole

>  <PUBCHEM_IUPAC_SYSTEMATIC_NAME>  (1) 
1H-indole

>  <PUBCHEM_IUPAC_TRADITIONAL_NAME>  (1) 
indole

>  <PUBCHEM_IUPAC_INCHI>  (1) 
InChI=1S/C8H7N/c1-2-4-8-7(3-1)5-6-9-8/h1-6,9H

>  <PUBCHEM_IUPAC_INCHIKEY>  (1) 
SIKJAQJRHWYJAI-UHFFFAOYSA-N

>  <PUBCHEM_XLOGP3>  (1) 
2.1

>  <PUBCHEM_EXACT_MASS>  (1) 
117.057849

>  <PUBCHEM_MOLECULAR_FORMULA>  (1) 
C8H7N

>  <PUBCHEM_MOLECULAR_WEIGHT>  (1) 
117.15

>  <PUBCHEM_OPENEYE_CAN_SMILES>  (1) 
C1=CC=C2C(=C1)C=CN2

>  <PUBCHEM_OPENEYE_ISO_SMILES>  (1) 
C1=CC=C2C(=C1)C=CN2

>  <PUBCHEM_CACTVS_TPSA>  (1) 
15.8

>  <PUBCHEM_MONOISOTOPIC_WEIGHT>  (1) 
117.057849

>  <PUBCHEM_TOTAL_CHARGE>  (1) 
0

>  <PUBCHEM_HEAVY_ATOM_COUNT>  (1) 
9

>  <PUBCHEM_ATOM_DEF_STEREO_COUNT>  (1) 
0

>  <PUBCHEM_ATOM_UDEF_STEREO_COUNT>  (1) 
0

>  <PUBCHEM_BOND_DEF_STEREO_COUNT>  (1) 
0

>  <PUBCHEM_BOND_UDEF_STEREO_COUNT>  (1) 
0

>  <PUBCHEM_ISOTOPIC_ATOM_COUNT>  (1) 
0

>  <PUBCHEM_COMPONENT_COUNT>  (1) 
1

>  <PUBCHEM_CACTVS_TAUTO_COUNT>  (1) 
-1

>  <PUBCHEM_COORDINATE_TYPE>  (1) 
1
5
255

>  <PUBCHEM_BONDANNOTATIONS>  (1) 
1  2  8
1  7  8
2  3  8
2  5  8
3  4  8
3  6  8
4  7  8
5  8  8
6  9  8
8  9  8

$$$$
