799
     RDKit          2D

 19 20  0  0  1  0  0  0  0  0999 V2000
   -5.1647   -0.2364    0.0000 P   0  0  0  0  0  0  0  0  0  0  0  0
    0.0076   -1.8168    0.0000 O   0  0  0  0  0  0  0  0  0  0  0  0
   -1.2331    1.9529    0.0000 O   0  0  0  0  0  0  0  0  0  0  0  0
   -3.8542    0.4933    0.0000 O   0  0  0  0  0  0  0  0  0  0  0  0
   -4.4349   -1.5470    0.0000 O   0  0  0  0  0  0  0  0  0  0  0  0
   -6.4752   -0.9662    0.0000 O   0  0  0  0  0  0  0  0  0  0  0  0
   -5.8944    1.0741    0.0000 O   0  0  0  0  0  0  0  0  0  0  0  0
    2.9932    2.1910    0.0000 N   0  0  0  0  0  0  0  0  0  0  0  0
    0.0309   -0.3170    0.0000 C   0  0  0  0  0  0  0  0  0  0  0  0
    1.3414    0.4127    0.0000 C   0  0  0  0  0  0  0  0  0  0  0  0
   -1.2564    0.4530    0.0000 C   0  0  0  0  0  0  0  0  0  0  0  0
    2.7021   -0.2185    0.0000 C   0  0  0  0  0  0  0  0  0  0  0  0
    3.7229    0.8805    0.0000 C   0  0  0  0  0  0  0  0  0  0  0  0
    1.5213    1.9019    0.0000 C   0  0  0  0  0  0  0  0  0  0  0  0
   -2.5669   -0.2767    0.0000 C   0  0  0  0  0  0  0  0  0  0  0  0
    3.1434   -1.6521    0.0000 C   0  0  0  0  0  0  0  0  0  0  0  0
    5.1851    0.5459    0.0000 C   0  0  0  0  0  0  0  0  0  0  0  0
    4.6056   -1.9867    0.0000 C   0  0  0  0  0  0  0  0  0  0  0  0
    5.6265   -0.8877    0.0000 C   0  0  0  0  0  0  0  0  0  0  0  0
  1  4  1  0
  1  5  1  0
  1  6  1  0
  1  7  2  0
  2  9  1  0
  3 11  1  0
  4 15  1  0
  8 13  1  0
  8 14  1  0
  9 10  1  0
  9 11  1  0
 10 12  1  0
 10 14  2  0
 11 15  1  0
 12 13  2  0
 12 16  1  0
 13 17  1  0
 16 18  2  0
 17 19  2  0
 18 19  1  0
M  END
>  <PUBCHEM_COMPOUND_CID>  (1) 
799

>  <PUBCHEM_COMPOUND_CANONICALIZED>  (1) 
1

>  <PUBCHEM_CACTVS_COMPLEXITY>  (1) 
348

>  <PUBCHEM_CACTVS_HBOND_ACCEPTOR>  (1) 
6

>  <PUBCHEM_CACTVS_HBOND_DONOR>  (1) 
5

>  <PUBCHEM_CACTVS_ROTATABLE_BOND>  (1) 
5

>  <PUBCHEM_CACTVS_SUBSKEYS>  (1) 
AAADccByOAIAAAAAAAAAAAAAAAAAAWAAAAAwAAAAAAAAAFgB8AAAHgAQCCAADBzhngY8wPLJkxCgQzRnRICCgCAxAiAI2aA4bJgJNuLAkZGEcAhn0AHJ2Aew0PMOgAAAAAACAAAAAAAAAAQAAAAAAAAAAA==

>  <PUBCHEM_IUPAC_OPENEYE_NAME>  (1) 
[2,3-dihydroxy-3-(1H-indol-3-yl)propyl] dihydrogen phosphate

>  <PUBCHEM_IUPAC_CAS_NAME>  (1) 
[2,3-dihydroxy-3-(1H-indol-3-yl)propyl] dihydrogen phosphate

>  <PUBCHEM_IUPAC_NAME_MARKUP>  (1) 
[2,3-dihydroxy-3-(1<I>H</I>-indol-3-yl)propyl] dihydrogen phosphate

>  <PUBCHEM_IUPAC_NAME>  (1) 
[2,3-dihydroxy-3-(1H-indol-3-yl)propyl] dihydrogen phosphate

>  <PUBCHEM_IUPAC_SYSTEMATIC_NAME>  (1) 
[3-(1H-indol-3-yl)-2,3-bis(oxidanyl)propyl] dihydrogen phosphate

>  <PUBCHEM_IUPAC_TRADITIONAL_NAME>  (1) 
[2,3-dihydroxy-3-(1H-indol-3-yl)propyl] dihydrogen phosphate

>  <PUBCHEM_IUPAC_INCHI>  (1) 
InChI=1S/C11H14NO6P/c13-10(6-18-19(15,16)17)11(14)8-5-12-9-4-2-1-3-7(8)9/h1-5,10-14H,6H2,(H2,15,16,17)

>  <PUBCHEM_IUPAC_INCHIKEY>  (1) 
NQEQTYPJSIEPHW-UHFFFAOYSA-N

>  <PUBCHEM_XLOGP3_AA>  (1) 
-1.2

>  <PUBCHEM_EXACT_MASS>  (1) 
287.055874

>  <PUBCHEM_MOLECULAR_FORMULA>  (1) 
C11H14NO6P

>  <PUBCHEM_MOLECULAR_WEIGHT>  (1) 
287.21

>  <PUBCHEM_OPENEYE_CAN_SMILES>  (1) 
C1=CC=C2C(=C1)C(=CN2)C(C(COP(=O)(O)O)O)O

>  <PUBCHEM_OPENEYE_ISO_SMILES>  (1) 
C1=CC=C2C(=C1)C(=CN2)C(C(COP(=O)(O)O)O)O

>  <PUBCHEM_CACTVS_TPSA>  (1) 
123

>  <PUBCHEM_MONOISOTOPIC_WEIGHT>  (1) 
287.055874

>  <PUBCHEM_TOTAL_CHARGE>  (1) 
0

>  <PUBCHEM_HEAVY_ATOM_COUNT>  (1) 
19

>  <PUBCHEM_ATOM_DEF_STEREO_COUNT>  (1) 
0

>  <PUBCHEM_ATOM_UDEF_STEREO_COUNT>  (1) 
2

>  <PUBCHEM_BOND_DEF_STEREO_COUNT>  (1) 
0

>  <PUBCHEM_BOND_UDEF_STEREO_COUNT>  (1) 
0

>  <PUBCHEM_ISOTOPIC_ATOM_COUNT>  (1) 
0

>  <PUBCHEM_COMPONENT_COUNT>  (1) 
1

>  <PUBCHEM_CACTVS_TAUTO_COUNT>  (1) 
-1

>  <PUBCHEM_COORDINATE_TYPE>  (1) 
1
5
255

>  <PUBCHEM_BONDANNOTATIONS>  (1) 
10  12  8
10  14  8
12  13  8
12  16  8
13  17  8
16  18  8
17  19  8
18  19  8
9  2  3
11  3  3
8  13  8
8  14  8

$$$$
