800
     RDKit          2D

 12 13  0  0  0  0  0  0  0  0999 V2000
   -4.7511   -0.8951    0.0000 O   0  0  0  0  0  0  0  0  0  0  0  0
    0.5018    2.1727    0.0000 N   0  0  0  0  0  0  0  0  0  0  0  0
    0.4791   -0.2543    0.0000 C   0  0  0  0  0  0  0  0  0  0  0  0
   -0.9431    0.2226    0.0000 C   0  0  0  0  0  0  0  0  0  0  0  0
    1.3721    0.9509    0.0000 C   0  0  0  0  0  0  0  0  0  0  0  0
   -0.9291    1.7225    0.0000 C   0  0  0  0  0  0  0  0  0  0  0  0
   -2.1649   -0.6477    0.0000 C   0  0  0  0  0  0  0  0  0  0  0  0
    1.0763   -1.6303    0.0000 C   0  0  0  0  0  0  0  0  0  0  0  0
    2.8623    0.7802    0.0000 C   0  0  0  0  0  0  0  0  0  0  0  0
    2.5666   -1.8010    0.0000 C   0  0  0  0  0  0  0  0  0  0  0  0
    3.4596   -0.5958    0.0000 C   0  0  0  0  0  0  0  0  0  0  0  0
   -3.5294   -0.0248    0.0000 C   0  0  0  0  0  0  0  0  0  0  0  0
  1 12  2  0
  2  5  1  0
  2  6  1  0
  3  4  1  0
  3  5  2  0
  3  8  1  0
  4  6  2  0
  4  7  1  0
  5  9  1  0
  7 12  1  0
  8 10  2  0
  9 11  2  0
 10 11  1  0
M  END
>  <PUBCHEM_COMPOUND_CID>  (1) 
800

>  <PUBCHEM_COMPOUND_CANONICALIZED>  (1) 
1

>  <PUBCHEM_CACTVS_COMPLEXITY>  (1) 
169

>  <PUBCHEM_CACTVS_HBOND_ACCEPTOR>  (1) 
1

>  <PUBCHEM_CACTVS_HBOND_DONOR>  (1) 
1

>  <PUBCHEM_CACTVS_ROTATABLE_BOND>  (1) 
2

>  <PUBCHEM_CACTVS_SUBSKEYS>  (1) 
AAADccByIAAAAAAAAAAAAAAAAAAAAWAAAAAwAAAAAAAAAFgB8AAAHgAQAAAADAjhngY8wPLJkACoAzx3xACCgCAxAiAI2aE4ZJgIIPLAlZGEIAhgkADIyAccicCegAAAAAACAAAAAAAAAAQAAAAAAAAAAA==

>  <PUBCHEM_IUPAC_OPENEYE_NAME>  (1) 
2-(1H-indol-3-yl)acetaldehyde

>  <PUBCHEM_IUPAC_CAS_NAME>  (1) 
2-(1H-indol-3-yl)acetaldehyde

>  <PUBCHEM_IUPAC_NAME_MARKUP>  (1) 
2-(1<I>H</I>-indol-3-yl)acetaldehyde

>  <PUBCHEM_IUPAC_NAME>  (1) 
2-(1H-indol-3-yl)acetaldehyde

>  <PUBCHEM_IUPAC_SYSTEMATIC_NAME>  (1) 
2-(1H-indol-3-yl)ethanal

>  <PUBCHEM_IUPAC_TRADITIONAL_NAME>  (1) 
2-(1H-indol-3-yl)acetaldehyde

>  <PUBCHEM_IUPAC_INCHI>  (1) 
InChI=1S/C10H9NO/c12-6-5-8-7-11-10-4-2-1-3-9(8)10/h1-4,6-7,11H,5H2

>  <PUBCHEM_IUPAC_INCHIKEY>  (1) 
WHOOUMGHGSPMGR-UHFFFAOYSA-N

>  <PUBCHEM_XLOGP3>  (1) 
1.3

>  <PUBCHEM_EXACT_MASS>  (1) 
159.068414

>  <PUBCHEM_MOLECULAR_FORMULA>  (1) 
C10H9NO

>  <PUBCHEM_MOLECULAR_WEIGHT>  (1) 
159.18

>  <PUBCHEM_OPENEYE_CAN_SMILES>  (1) 
C1=CC=C2C(=C1)C(=CN2)CC=O

>  <PUBCHEM_OPENEYE_ISO_SMILES>  (1) 
C1=CC=C2C(=C1)C(=CN2)CC=O

>  <PUBCHEM_CACTVS_TPSA>  (1) 
32.9

>  <PUBCHEM_MONOISOTOPIC_WEIGHT>  (1) 
159.068414

>  <PUBCHEM_TOTAL_CHARGE>  (1) 
0

>  <PUBCHEM_HEAVY_ATOM_COUNT>  (1) 
12

>  <PUBCHEM_ATOM_DEF_STEREO_COUNT>  (1) 
0

>  <PUBCHEM_ATOM_UDEF_STEREO_COUNT>  (1) 
0

>  <PUBCHEM_BOND_DEF_STEREO_COUNT>  (1) 
0

>  <PUBCHEM_BOND_UDEF_STEREO_COUNT>  (1) 
0

>  <PUBCHEM_ISOTOPIC_ATOM_COUNT>  (1) 
0

>  <PUBCHEM_COMPONENT_COUNT>  (1) 
1

>  <PUBCHEM_CACTVS_TAUTO_COUNT>  (1) 
-1

>  <PUBCHEM_COORDINATE_TYPE>  (1) 
1
5
255

>  <PUBCHEM_BONDANNOTATIONS>  (1) 
10  11  8
2  5  8
2  6  8
3  4  8
3  5  8
3  8  8
4  6  8
5  9  8
8  10  8
9  11  8

$$$$
