803
     RDKit          2D

 15 16  0  0  0  0  0  0  0  0999 V2000
   -2.6183    1.7023    0.0000 O   0  0  0  0  0  0  0  0  0  0  0  0
   -5.1584    0.1061    0.0000 O   0  0  0  0  0  0  0  0  0  0  0  0
   -3.7761   -2.0937    0.0000 O   0  0  0  0  0  0  0  0  0  0  0  0
    1.5895    2.1637    0.0000 N   0  0  0  0  0  0  0  0  0  0  0  0
    0.0341    0.3006    0.0000 C   0  0  0  0  0  0  0  0  0  0  0  0
    1.4263   -0.2578    0.0000 C   0  0  0  0  0  0  0  0  0  0  0  0
    2.3875    0.8937    0.0000 C   0  0  0  0  0  0  0  0  0  0  0  0
   -1.2360   -0.4975    0.0000 C   0  0  0  0  0  0  0  0  0  0  0  0
    0.1349    1.7972    0.0000 C   0  0  0  0  0  0  0  0  0  0  0  0
    1.9429   -1.6661    0.0000 C   0  0  0  0  0  0  0  0  0  0  0  0
    3.8654    0.6369    0.0000 C   0  0  0  0  0  0  0  0  0  0  0  0
    3.4207   -1.9228    0.0000 C   0  0  0  0  0  0  0  0  0  0  0  0
    4.3820   -0.7713    0.0000 C   0  0  0  0  0  0  0  0  0  0  0  0
   -2.5622    0.2034    0.0000 C   0  0  0  0  0  0  0  0  0  0  0  0
   -3.8322   -0.5947    0.0000 C   0  0  0  0  0  0  0  0  0  0  0  0
  1 14  2  0
  2 15  1  0
  3 15  2  0
  4  7  1  0
  4  9  1  0
  5  6  1  0
  5  8  1  0
  5  9  2  0
  6  7  2  0
  6 10  1  0
  7 11  1  0
  8 14  1  0
 10 12  2  0
 11 13  2  0
 12 13  1  0
 14 15  1  0
M  END
>  <PUBCHEM_COMPOUND_CID>  (1) 
803

>  <PUBCHEM_COMPOUND_CANONICALIZED>  (1) 
1

>  <PUBCHEM_CACTVS_COMPLEXITY>  (1) 
277

>  <PUBCHEM_CACTVS_HBOND_ACCEPTOR>  (1) 
3

>  <PUBCHEM_CACTVS_HBOND_DONOR>  (1) 
2

>  <PUBCHEM_CACTVS_ROTATABLE_BOND>  (1) 
3

>  <PUBCHEM_CACTVS_SUBSKEYS>  (1) 
AAADccByMAAAAAAAAAAAAAAAAAAAAWAAAAAwAAAAAAAAAFgB8AAAHgAQCAAADAzBngQ8yPLJkgCoA7T3TAKCgCAxAiAI2aF4ZJgIIPLAlZGEYAhkkADIyAec2fKegAAAAAACAAAAAAAAAAQAAAAAAAAAAA==

>  <PUBCHEM_IUPAC_OPENEYE_NAME>  (1) 
3-(1H-indol-3-yl)-2-oxo-propanoic acid

>  <PUBCHEM_IUPAC_CAS_NAME>  (1) 
3-(1H-indol-3-yl)-2-oxopropanoic acid

>  <PUBCHEM_IUPAC_NAME_MARKUP>  (1) 
3-(1<I>H</I>-indol-3-yl)-2-oxopropanoic acid

>  <PUBCHEM_IUPAC_NAME>  (1) 
3-(1H-indol-3-yl)-2-oxopropanoic acid

>  <PUBCHEM_IUPAC_SYSTEMATIC_NAME>  (1) 
3-(1H-indol-3-yl)-2-oxidanylidene-propanoic acid

>  <PUBCHEM_IUPAC_TRADITIONAL_NAME>  (1) 
3-(1H-indol-3-yl)-2-keto-propionic acid

>  <PUBCHEM_IUPAC_INCHI>  (1) 
InChI=1S/C11H9NO3/c13-10(11(14)15)5-7-6-12-9-4-2-1-3-8(7)9/h1-4,6,12H,5H2,(H,14,15)

>  <PUBCHEM_IUPAC_INCHIKEY>  (1) 
RSTKLPZEZYGQPY-UHFFFAOYSA-N

>  <PUBCHEM_XLOGP3>  (1) 
1.3

>  <PUBCHEM_EXACT_MASS>  (1) 
203.058243

>  <PUBCHEM_MOLECULAR_FORMULA>  (1) 
C11H9NO3

>  <PUBCHEM_MOLECULAR_WEIGHT>  (1) 
203.19

>  <PUBCHEM_OPENEYE_CAN_SMILES>  (1) 
C1=CC=C2C(=C1)C(=CN2)CC(=O)C(=O)O

>  <PUBCHEM_OPENEYE_ISO_SMILES>  (1) 
C1=CC=C2C(=C1)C(=CN2)CC(=O)C(=O)O

>  <PUBCHEM_CACTVS_TPSA>  (1) 
70.2

>  <PUBCHEM_MONOISOTOPIC_WEIGHT>  (1) 
203.058243

>  <PUBCHEM_TOTAL_CHARGE>  (1) 
0

>  <PUBCHEM_HEAVY_ATOM_COUNT>  (1) 
15

>  <PUBCHEM_ATOM_DEF_STEREO_COUNT>  (1) 
0

>  <PUBCHEM_ATOM_UDEF_STEREO_COUNT>  (1) 
0

>  <PUBCHEM_BOND_DEF_STEREO_COUNT>  (1) 
0

>  <PUBCHEM_BOND_UDEF_STEREO_COUNT>  (1) 
0

>  <PUBCHEM_ISOTOPIC_ATOM_COUNT>  (1) 
0

>  <PUBCHEM_COMPONENT_COUNT>  (1) 
1

>  <PUBCHEM_CACTVS_TAUTO_COUNT>  (1) 
-1

>  <PUBCHEM_COORDINATE_TYPE>  (1) 
1
5
255

>  <PUBCHEM_BONDANNOTATIONS>  (1) 
10  12  8
11  13  8
12  13  8
4  7  8
4  9  8
5  6  8
5  9  8
6  10  8
6  7  8
7  11  8

$$$$
