808
     RDKit          2D

 53 55  0  0  1  0  0  0  0  0999 V2000
  -14.9205   -0.3604    0.0000 S   0  0  0  0  0  0  0  0  0  0  0  0
    3.5383   -1.7615    0.0000 P   0  0  0  0  0  0  0  0  0  0  0  0
    3.1527    3.2602    0.0000 P   0  0  0  0  0  0  0  0  0  0  0  0
    0.5561    3.1713    0.0000 P   0  0  0  0  0  0  0  0  0  0  0  0
    7.2005    1.0075    0.0000 O   0  0  0  0  0  0  0  0  0  0  0  0
    4.9799   -2.1760    0.0000 O   0  0  0  0  0  0  0  0  0  0  0  0
    8.1933   -2.7448    0.0000 O   0  0  0  0  0  0  0  0  0  0  0  0
    4.4766    2.5551    0.0000 O   0  0  0  0  0  0  0  0  0  0  0  0
    3.9528   -0.3199    0.0000 O   0  0  0  0  0  0  0  0  0  0  0  0
    2.0967   -1.3471    0.0000 O   0  0  0  0  0  0  0  0  0  0  0  0
    1.8287    3.9653    0.0000 O   0  0  0  0  0  0  0  0  0  0  0  0
   -0.7165    2.3773    0.0000 O   0  0  0  0  0  0  0  0  0  0  0  0
    3.1239   -3.2031    0.0000 O   0  0  0  0  0  0  0  0  0  0  0  0
    3.8578    4.5841    0.0000 O   0  0  0  0  0  0  0  0  0  0  0  0
   -3.1590   -2.2090    0.0000 O   0  0  0  0  0  0  0  0  0  0  0  0
    2.4476    1.9362    0.0000 O   0  0  0  0  0  0  0  0  0  0  0  0
    1.3502    1.8987    0.0000 O   0  0  0  0  0  0  0  0  0  0  0  0
   -0.2379    4.4439    0.0000 O   0  0  0  0  0  0  0  0  0  0  0  0
   -4.5856    1.4943    0.0000 O   0  0  0  0  0  0  0  0  0  0  0  0
   -9.7788    1.3165    0.0000 O   0  0  0  0  0  0  0  0  0  0  0  0
  -16.1418   -2.6535    0.0000 O   0  0  0  0  0  0  0  0  0  0  0  0
    9.7273    0.1355    0.0000 N   0  0  0  0  0  0  0  0  0  0  0  0
   11.9095    1.1980    0.0000 N   0  0  0  0  0  0  0  0  0  0  0  0
   10.6629   -2.4405    0.0000 N   0  0  0  0  0  0  0  0  0  0  0  0
   13.2546   -2.6235    0.0000 N   0  0  0  0  0  0  0  0  0  0  0  0
   14.7089   -0.4706    0.0000 N   0  0  0  0  0  0  0  0  0  0  0  0
   -5.8069   -0.7988    0.0000 N   0  0  0  0  0  0  0  0  0  0  0  0
  -11.0000   -0.9766    0.0000 N   0  0  0  0  0  0  0  0  0  0  0  0
    6.0597   -1.1347    0.0000 C   0  0  0  0  0  0  0  0  0  0  0  0
    7.5367   -1.3962    0.0000 C   0  0  0  0  0  0  0  0  0  0  0  0
    5.8519    0.3508    0.0000 C   0  0  0  0  0  0  0  0  0  0  0  0
    8.2418   -0.0722    0.0000 C   0  0  0  0  0  0  0  0  0  0  0  0
    4.5280    1.0559    0.0000 C   0  0  0  0  0  0  0  0  0  0  0  0
   10.7686   -0.9442    0.0000 C   0  0  0  0  0  0  0  0  0  0  0  0
   10.4324    1.4595    0.0000 C   0  0  0  0  0  0  0  0  0  0  0  0
   12.1172   -0.2876    0.0000 C   0  0  0  0  0  0  0  0  0  0  0  0
   -1.9378    0.0841    0.0000 C   0  0  0  0  0  0  0  0  0  0  0  0
   -3.2104   -0.7099    0.0000 C   0  0  0  0  0  0  0  0  0  0  0  0
   -0.6651    0.8781    0.0000 C   0  0  0  0  0  0  0  0  0  0  0  0
   13.3602   -1.1272    0.0000 C   0  0  0  0  0  0  0  0  0  0  0  0
   -2.7318    1.3567    0.0000 C   0  0  0  0  0  0  0  0  0  0  0  0
   -1.1437   -1.1885    0.0000 C   0  0  0  0  0  0  0  0  0  0  0  0
   11.9059   -3.2801    0.0000 C   0  0  0  0  0  0  0  0  0  0  0  0
   -4.5343   -0.0048    0.0000 C   0  0  0  0  0  0  0  0  0  0  0  0
   -7.1309   -0.0937    0.0000 C   0  0  0  0  0  0  0  0  0  0  0  0
   -8.4035   -0.8877    0.0000 C   0  0  0  0  0  0  0  0  0  0  0  0
   -9.7274   -0.1826    0.0000 C   0  0  0  0  0  0  0  0  0  0  0  0
  -12.3240   -0.2715    0.0000 C   0  0  0  0  0  0  0  0  0  0  0  0
  -13.5966   -1.0655    0.0000 C   0  0  0  0  0  0  0  0  0  0  0  0
  -17.5171   -0.4493    0.0000 C   0  0  0  0  0  0  0  0  0  0  0  0
  -16.1931   -1.1544    0.0000 C   0  0  0  0  0  0  0  0  0  0  0  0
  -18.7897   -1.2433    0.0000 C   0  0  0  0  0  0  0  0  0  0  0  0
  -17.5684    1.0498    0.0000 C   0  0  0  0  0  0  0  0  0  0  0  0
  1 49  1  0
  1 51  1  0
  2  6  1  0
  2  9  1  0
  2 10  1  0
  2 13  2  0
  3  8  1  0
  3 11  1  0
  3 14  1  0
  3 16  2  0
  4 11  1  0
  4 12  1  0
  4 17  1  0
  4 18  2  0
  5 31  1  0
  5 32  1  0
  6 29  1  0
  7 30  1  0
  8 33  1  0
 12 39  1  0
 15 38  1  0
 19 44  2  0
 20 47  2  0
 21 51  2  0
 22 32  1  0
 22 34  1  0
 22 35  1  0
 23 35  2  0
 23 36  1  0
 24 34  1  0
 24 43  2  0
 25 40  2  0
 25 43  1  0
 26 40  1  0
 27 44  1  0
 27 45  1  0
 28 47  1  0
 28 48  1  0
 29 30  1  0
 29 31  1  0
 30 32  1  0
 31 33  1  0
 34 36  2  0
 36 40  1  0
 37 38  1  0
 37 39  1  0
 37 41  1  0
 37 42  1  0
 38 44  1  0
 45 46  1  0
 46 47  1  0
 48 49  1  0
 50 51  1  0
 50 52  1  0
 50 53  1  0
M  END
>  <PUBCHEM_COMPOUND_CID>  (1) 
808

>  <PUBCHEM_COMPOUND_CANONICALIZED>  (1) 
1

>  <PUBCHEM_CACTVS_COMPLEXITY>  (1) 
1430

>  <PUBCHEM_CACTVS_HBOND_ACCEPTOR>  (1) 
22

>  <PUBCHEM_CACTVS_HBOND_DONOR>  (1) 
9

>  <PUBCHEM_CACTVS_ROTATABLE_BOND>  (1) 
21

>  <PUBCHEM_CACTVS_SUBSKEYS>  (1) 
AAADcfB7vgNAAAAAAAAAAAAAAAAAAWJAAAAsAAAAAAAAAFgB+AAAHgQQCCAADxzl1waH8L/MFxioQQdxdIKAgC0RELABUKFoVBCDWBpgyEAeRAgPFgLzACDyMAIJAAAAAAAAAAAAAAAAAAAAAAAAAAAAAA==

>  <PUBCHEM_IUPAC_OPENEYE_NAME>  (1) 
S-[2-[3-[[4-[[[5-(6-aminopurin-9-yl)-4-hydroxy-3-phosphonooxy-tetrahydrofuran-2-yl]methoxy-hydroxy-phosphoryl]oxy-hydroxy-phosphoryl]oxy-2-hydroxy-3,3-dimethyl-butanoyl]amino]propanoylamino]ethyl] 2-methylpropanethioate

>  <PUBCHEM_IUPAC_CAS_NAME>  (1) 
2-methylpropanethioic acid S-[2-[[3-[[4-[[[5-(6-aminopurin-9-yl)-4-hydroxy-3-phosphonooxy-2-oxolanyl]methoxy-hydroxyphosphoryl]oxy-hydroxyphosphoryl]oxy-2-hydroxy-3,3-dimethyl-1-oxobutyl]amino]-1-oxopropyl]amino]ethyl] ester

>  <PUBCHEM_IUPAC_NAME_MARKUP>  (1) 
<I>S</I>-[2-[3-[[4-[[[5-(6-aminopurin-9-yl)-4-hydroxy-3-phosphonooxyoxolan-2-yl]methoxy-hydroxyphosphoryl]oxy-hydroxyphosphoryl]oxy-2-hydroxy-3,3-dimethylbutanoyl]amino]propanoylamino]ethyl] 2-methylpropanethioate

>  <PUBCHEM_IUPAC_NAME>  (1) 
S-[2-[3-[[4-[[[5-(6-aminopurin-9-yl)-4-hydroxy-3-phosphonooxyoxolan-2-yl]methoxy-hydroxyphosphoryl]oxy-hydroxyphosphoryl]oxy-2-hydroxy-3,3-dimethylbutanoyl]amino]propanoylamino]ethyl] 2-methylpropanethioate

>  <PUBCHEM_IUPAC_SYSTEMATIC_NAME>  (1) 
S-[2-[3-[[4-[[[5-(6-aminopurin-9-yl)-4-oxidanyl-3-phosphonooxy-oxolan-2-yl]methoxy-oxidanyl-phosphoryl]oxy-oxidanyl-phosphoryl]oxy-3,3-dimethyl-2-oxidanyl-butanoyl]amino]propanoylamino]ethyl] 2-methylpropanethioate

>  <PUBCHEM_IUPAC_TRADITIONAL_NAME>  (1) 
2-methylpropanethioic acid S-[2-[3-[[4-[[(5-adenin-9-yl-4-hydroxy-3-phosphonooxy-tetrahydrofuran-2-yl)methoxy-hydroxy-phosphoryl]oxy-hydroxy-phosphoryl]oxy-2-hydroxy-3,3-dimethyl-butanoyl]amino]propanoylamino]ethyl] ester

>  <PUBCHEM_IUPAC_INCHI>  (1) 
InChI=1S/C25H42N7O17P3S/c1-13(2)24(37)53-8-7-27-15(33)5-6-28-22(36)19(35)25(3,4)10-46-52(43,44)49-51(41,42)45-9-14-18(48-50(38,39)40)17(34)23(47-14)32-12-31-16-20(26)29-11-30-21(16)32/h11-14,17-19,23,34-35H,5-10H2,1-4H3,(H,27,33)(H,28,36)(H,41,42)(H,43,44)(H2,26,29,30)(H2,38,39,40)

>  <PUBCHEM_IUPAC_INCHIKEY>  (1) 
AEWHYWSPVRZHCT-UHFFFAOYSA-N

>  <PUBCHEM_XLOGP3>  (1) 
-4.6

>  <PUBCHEM_EXACT_MASS>  (1) 
837.157075

>  <PUBCHEM_MOLECULAR_FORMULA>  (1) 
C25H42N7O17P3S

>  <PUBCHEM_MOLECULAR_WEIGHT>  (1) 
837.6

>  <PUBCHEM_OPENEYE_CAN_SMILES>  (1) 
CC(C)C(=O)SCCNC(=O)CCNC(=O)C(C(C)(C)COP(=O)(O)OP(=O)(O)OCC1C(C(C(O1)N2C=NC3=C(N=CN=C32)N)O)OP(=O)(O)O)O

>  <PUBCHEM_OPENEYE_ISO_SMILES>  (1) 
CC(C)C(=O)SCCNC(=O)CCNC(=O)C(C(C)(C)COP(=O)(O)OP(=O)(O)OCC1C(C(C(O1)N2C=NC3=C(N=CN=C32)N)O)OP(=O)(O)O)O

>  <PUBCHEM_CACTVS_TPSA>  (1) 
389

>  <PUBCHEM_MONOISOTOPIC_WEIGHT>  (1) 
837.157075

>  <PUBCHEM_TOTAL_CHARGE>  (1) 
0

>  <PUBCHEM_HEAVY_ATOM_COUNT>  (1) 
53

>  <PUBCHEM_ATOM_DEF_STEREO_COUNT>  (1) 
0

>  <PUBCHEM_ATOM_UDEF_STEREO_COUNT>  (1) 
5

>  <PUBCHEM_BOND_DEF_STEREO_COUNT>  (1) 
0

>  <PUBCHEM_BOND_UDEF_STEREO_COUNT>  (1) 
0

>  <PUBCHEM_ISOTOPIC_ATOM_COUNT>  (1) 
0

>  <PUBCHEM_COMPONENT_COUNT>  (1) 
1

>  <PUBCHEM_CACTVS_TAUTO_COUNT>  (1) 
-1

>  <PUBCHEM_COORDINATE_TYPE>  (1) 
1
5
255

>  <PUBCHEM_BONDANNOTATIONS>  (1) 
38  15  3
32  22  3
22  34  8
22  35  8
23  35  8
23  36  8
24  34  8
24  43  8
25  40  8
25  43  8
31  33  3
34  36  8
36  40  8
29  6  3
30  7  3

$$$$
