817
     RDKit          2D

 16 15  0  0  1  0  0  0  0  0999 V2000
   -0.8676    1.8499    0.0000 O   0  0  0  0  0  0  0  0  0  0  0  0
   -2.0539   -1.9373    0.0000 O   0  0  0  0  0  0  0  0  0  0  0  0
    0.5430   -1.8596    0.0000 O   0  0  0  0  0  0  0  0  0  0  0  0
   -3.4645    1.7722    0.0000 O   0  0  0  0  0  0  0  0  0  0  0  0
   -6.0166    0.1952    0.0000 O   0  0  0  0  0  0  0  0  0  0  0  0
    3.1399   -1.7819    0.0000 O   0  0  0  0  0  0  0  0  0  0  0  0
    5.6920   -0.2049    0.0000 O   0  0  0  0  0  0  0  0  0  0  0  0
    4.3262    2.0053    0.0000 O   0  0  0  0  0  0  0  0  0  0  0  0
   -0.8227    0.3506    0.0000 C   0  0  0  0  0  0  0  0  0  0  0  0
   -2.0988   -0.4379    0.0000 C   0  0  0  0  0  0  0  0  0  0  0  0
    0.4981   -0.3603    0.0000 C   0  0  0  0  0  0  0  0  0  0  0  0
   -3.4197    0.2729    0.0000 C   0  0  0  0  0  0  0  0  0  0  0  0
    1.7742    0.4282    0.0000 C   0  0  0  0  0  0  0  0  0  0  0  0
   -4.6957   -0.5156    0.0000 C   0  0  0  0  0  0  0  0  0  0  0  0
    3.0950   -0.2826    0.0000 C   0  0  0  0  0  0  0  0  0  0  0  0
    4.3711    0.5059    0.0000 C   0  0  0  0  0  0  0  0  0  0  0  0
  1  9  1  0
  2 10  1  0
  3 11  1  0
  4 12  1  0
  5 14  1  0
  6 15  2  0
  7 16  1  0
  8 16  2  0
  9 10  1  0
  9 11  1  0
 10 12  1  0
 11 13  1  0
 12 14  1  0
 13 15  1  0
 15 16  1  0
M  END
>  <PUBCHEM_COMPOUND_CID>  (1) 
817

>  <PUBCHEM_COMPOUND_CANONICALIZED>  (1) 
1

>  <PUBCHEM_CACTVS_COMPLEXITY>  (1) 
252

>  <PUBCHEM_CACTVS_HBOND_ACCEPTOR>  (1) 
8

>  <PUBCHEM_CACTVS_HBOND_DONOR>  (1) 
6

>  <PUBCHEM_CACTVS_ROTATABLE_BOND>  (1) 
7

>  <PUBCHEM_CACTVS_SUBSKEYS>  (1) 
AAADccBwPAAAAAAAAAAAAAAAAAAAAAAAAAAAAAAAAAAAAAAAAAAAGgAACAAACBSggAIACAAAAgAIAICQCAIAAAAAAAAAAAFAAAABEBYAAAAAQAAFIAABAAHK7KTAAAAAAAAAAAAAAAAAAAAAAAAAAAAAAA==

>  <PUBCHEM_IUPAC_OPENEYE_NAME>  (1) 
4,5,6,7,8-pentahydroxy-2-oxo-octanoic acid

>  <PUBCHEM_IUPAC_CAS_NAME>  (1) 
4,5,6,7,8-pentahydroxy-2-oxooctanoic acid

>  <PUBCHEM_IUPAC_NAME_MARKUP>  (1) 
4,5,6,7,8-pentahydroxy-2-oxooctanoic acid

>  <PUBCHEM_IUPAC_NAME>  (1) 
4,5,6,7,8-pentahydroxy-2-oxooctanoic acid

>  <PUBCHEM_IUPAC_SYSTEMATIC_NAME>  (1) 
4,5,6,7,8-pentakis(oxidanyl)-2-oxidanylidene-octanoic acid

>  <PUBCHEM_IUPAC_TRADITIONAL_NAME>  (1) 
4,5,6,7,8-pentahydroxy-2-keto-caprylic acid

>  <PUBCHEM_IUPAC_INCHI>  (1) 
InChI=1S/C8H14O8/c9-2-5(12)7(14)6(13)3(10)1-4(11)8(15)16/h3,5-7,9-10,12-14H,1-2H2,(H,15,16)

>  <PUBCHEM_IUPAC_INCHIKEY>  (1) 
KYQCXUMVJGMDNG-UHFFFAOYSA-N

>  <PUBCHEM_XLOGP3_AA>  (1) 
-3.6

>  <PUBCHEM_EXACT_MASS>  (1) 
238.068867

>  <PUBCHEM_MOLECULAR_FORMULA>  (1) 
C8H14O8

>  <PUBCHEM_MOLECULAR_WEIGHT>  (1) 
238.19

>  <PUBCHEM_OPENEYE_CAN_SMILES>  (1) 
C(C(C(C(C(CO)O)O)O)O)C(=O)C(=O)O

>  <PUBCHEM_OPENEYE_ISO_SMILES>  (1) 
C(C(C(C(C(CO)O)O)O)O)C(=O)C(=O)O

>  <PUBCHEM_CACTVS_TPSA>  (1) 
156

>  <PUBCHEM_MONOISOTOPIC_WEIGHT>  (1) 
238.068867

>  <PUBCHEM_TOTAL_CHARGE>  (1) 
0

>  <PUBCHEM_HEAVY_ATOM_COUNT>  (1) 
16

>  <PUBCHEM_ATOM_DEF_STEREO_COUNT>  (1) 
0

>  <PUBCHEM_ATOM_UDEF_STEREO_COUNT>  (1) 
4

>  <PUBCHEM_BOND_DEF_STEREO_COUNT>  (1) 
0

>  <PUBCHEM_BOND_UDEF_STEREO_COUNT>  (1) 
0

>  <PUBCHEM_ISOTOPIC_ATOM_COUNT>  (1) 
0

>  <PUBCHEM_COMPONENT_COUNT>  (1) 
1

>  <PUBCHEM_CACTVS_TAUTO_COUNT>  (1) 
-1

>  <PUBCHEM_COORDINATE_TYPE>  (1) 
1
5
255

>  <PUBCHEM_BONDANNOTATIONS>  (1) 
9  1  3
10  2  3
11  3  3
12  4  3

$$$$
