818
     RDKit          2D

 20 19  0  0  1  0  0  0  0  0999 V2000
    5.7851    0.1350    0.0000 P   0  0  0  0  0  0  0  0  0  0  0  0
   -0.7581   -1.9713    0.0000 O   0  0  0  0  0  0  0  0  0  0  0  0
    0.6233    1.7492    0.0000 O   0  0  0  0  0  0  0  0  0  0  0  0
   -1.9742    1.8065    0.0000 O   0  0  0  0  0  0  0  0  0  0  0  0
    1.8393   -2.0285    0.0000 O   0  0  0  0  0  0  0  0  0  0  0  0
    4.4698   -0.5862    0.0000 O   0  0  0  0  0  0  0  0  0  0  0  0
   -4.5716    1.8637    0.0000 O   0  0  0  0  0  0  0  0  0  0  0  0
    5.0639    1.4503    0.0000 O   0  0  0  0  0  0  0  0  0  0  0  0
    7.1004    0.8562    0.0000 O   0  0  0  0  0  0  0  0  0  0  0  0
    6.5063   -1.1803    0.0000 O   0  0  0  0  0  0  0  0  0  0  0  0
   -7.2021    0.4214    0.0000 O   0  0  0  0  0  0  0  0  0  0  0  0
   -5.9530   -1.8567    0.0000 O   0  0  0  0  0  0  0  0  0  0  0  0
   -0.7250   -0.4716    0.0000 C   0  0  0  0  0  0  0  0  0  0  0  0
    0.5902    0.2495    0.0000 C   0  0  0  0  0  0  0  0  0  0  0  0
   -2.0072    0.3068    0.0000 C   0  0  0  0  0  0  0  0  0  0  0  0
    1.8724   -0.5289    0.0000 C   0  0  0  0  0  0  0  0  0  0  0  0
   -3.3225   -0.4144    0.0000 C   0  0  0  0  0  0  0  0  0  0  0  0
    3.1877    0.1923    0.0000 C   0  0  0  0  0  0  0  0  0  0  0  0
   -4.6047    0.3641    0.0000 C   0  0  0  0  0  0  0  0  0  0  0  0
   -5.9199   -0.3571    0.0000 C   0  0  0  0  0  0  0  0  0  0  0  0
  1  6  1  0
  1  8  1  0
  1  9  1  0
  1 10  2  0
  2 13  1  0
  3 14  1  0
  4 15  1  0
  5 16  1  0
  6 18  1  0
  7 19  2  0
 11 20  1  0
 12 20  2  0
 13 14  1  0
 13 15  1  0
 14 16  1  0
 15 17  1  0
 16 18  1  0
 17 19  1  0
 19 20  1  0
M  END
>  <PUBCHEM_COMPOUND_CID>  (1) 
818

>  <PUBCHEM_COMPOUND_CANONICALIZED>  (1) 
1

>  <PUBCHEM_CACTVS_COMPLEXITY>  (1) 
390

>  <PUBCHEM_CACTVS_HBOND_ACCEPTOR>  (1) 
11

>  <PUBCHEM_CACTVS_HBOND_DONOR>  (1) 
7

>  <PUBCHEM_CACTVS_ROTATABLE_BOND>  (1) 
9

>  <PUBCHEM_CACTVS_SUBSKEYS>  (1) 
AAADccBwPAIAAAAAAAAAAAAAAAAAAAAAAAAAAAAAAAAAAAAAAAAAGgAACCAACBSggAIACAAAAxAIQICQCIIAAAAAAAAAAAFAAAABEBYAAAAAQAAFIAABAAHK7KTAAAAAAAAAAAAAAAAAAAAAAAAAAAAAAA==

>  <PUBCHEM_IUPAC_OPENEYE_NAME>  (1) 
4,5,6,7-tetrahydroxy-2-oxo-8-phosphonooxy-octanoic acid

>  <PUBCHEM_IUPAC_CAS_NAME>  (1) 
4,5,6,7-tetrahydroxy-2-oxo-8-phosphonooxyoctanoic acid

>  <PUBCHEM_IUPAC_NAME_MARKUP>  (1) 
4,5,6,7-tetrahydroxy-2-oxo-8-phosphonooxyoctanoic acid

>  <PUBCHEM_IUPAC_NAME>  (1) 
4,5,6,7-tetrahydroxy-2-oxo-8-phosphonooxyoctanoic acid

>  <PUBCHEM_IUPAC_SYSTEMATIC_NAME>  (1) 
4,5,6,7-tetrakis(oxidanyl)-2-oxidanylidene-8-phosphonooxy-octanoic acid

>  <PUBCHEM_IUPAC_TRADITIONAL_NAME>  (1) 
4,5,6,7-tetrahydroxy-2-keto-8-phosphonooxy-caprylic acid

>  <PUBCHEM_IUPAC_INCHI>  (1) 
InChI=1S/C8H15O11P/c9-3(1-4(10)8(14)15)6(12)7(13)5(11)2-19-20(16,17)18/h3,5-7,9,11-13H,1-2H2,(H,14,15)(H2,16,17,18)

>  <PUBCHEM_IUPAC_INCHIKEY>  (1) 
RTNBXJBOAIDPME-UHFFFAOYSA-N

>  <PUBCHEM_XLOGP3_AA>  (1) 
-4.6

>  <PUBCHEM_EXACT_MASS>  (1) 
318.035198

>  <PUBCHEM_MOLECULAR_FORMULA>  (1) 
C8H15O11P

>  <PUBCHEM_MOLECULAR_WEIGHT>  (1) 
318.17

>  <PUBCHEM_OPENEYE_CAN_SMILES>  (1) 
C(C(C(C(C(COP(=O)(O)O)O)O)O)O)C(=O)C(=O)O

>  <PUBCHEM_OPENEYE_ISO_SMILES>  (1) 
C(C(C(C(C(COP(=O)(O)O)O)O)O)O)C(=O)C(=O)O

>  <PUBCHEM_CACTVS_TPSA>  (1) 
202

>  <PUBCHEM_MONOISOTOPIC_WEIGHT>  (1) 
318.035198

>  <PUBCHEM_TOTAL_CHARGE>  (1) 
0

>  <PUBCHEM_HEAVY_ATOM_COUNT>  (1) 
20

>  <PUBCHEM_ATOM_DEF_STEREO_COUNT>  (1) 
0

>  <PUBCHEM_ATOM_UDEF_STEREO_COUNT>  (1) 
4

>  <PUBCHEM_BOND_DEF_STEREO_COUNT>  (1) 
0

>  <PUBCHEM_BOND_UDEF_STEREO_COUNT>  (1) 
0

>  <PUBCHEM_ISOTOPIC_ATOM_COUNT>  (1) 
0

>  <PUBCHEM_COMPONENT_COUNT>  (1) 
1

>  <PUBCHEM_CACTVS_TAUTO_COUNT>  (1) 
-1

>  <PUBCHEM_COORDINATE_TYPE>  (1) 
1
5
255

>  <PUBCHEM_BONDANNOTATIONS>  (1) 
13  2  3
14  3  3
15  4  3
16  5  3

$$$$
