819
     RDKit          2D

110112  0  0  1  0  0  0  0  0999 V2000
   -9.7755   -1.2925    0.0000 P   0  0  0  0  0  0  0  0  0  0  0  0
    2.0450   -6.6801    0.0000 P   0  0  0  0  0  0  0  0  0  0  0  0
   -5.0473   -3.4475    0.0000 O   0  0  0  0  0  0  0  0  0  0  0  0
   -2.9321   -1.9389    0.0000 O   0  0  0  0  0  0  0  0  0  0  0  0
   -8.6556   -5.0999    0.0000 O   0  0  0  0  0  0  0  0  0  0  0  0
   -7.6603    0.2161    0.0000 O   0  0  0  0  0  0  0  0  0  0  0  0
   -8.9045   -2.5137    0.0000 O   0  0  0  0  0  0  0  0  0  0  0  0
    0.3030   -4.2377    0.0000 O   0  0  0  0  0  0  0  0  0  0  0  0
  -10.5139   -5.6151    0.0000 O   0  0  0  0  0  0  0  0  0  0  0  0
    2.1693   -0.1429    0.0000 O   0  0  0  0  0  0  0  0  0  0  0  0
   -0.8169   -0.4303    0.0000 O   0  0  0  0  0  0  0  0  0  0  0  0
    2.6671   -5.3152    0.0000 O   0  0  0  0  0  0  0  0  0  0  0  0
  -10.8672  -10.1012    0.0000 O   0  0  0  0  0  0  0  0  0  0  0  0
  -13.3395   -8.4019    0.0000 O   0  0  0  0  0  0  0  0  0  0  0  0
  -12.9862   -3.9158    0.0000 O   0  0  0  0  0  0  0  0  0  0  0  0
   -7.4248   -8.2859    0.0000 O   0  0  0  0  0  0  0  0  0  0  0  0
   -2.3100   -0.5740    0.0000 O   0  0  0  0  0  0  0  0  0  0  0  0
   -8.5543   -0.4215    0.0000 O   0  0  0  0  0  0  0  0  0  0  0  0
  -10.6465   -0.0713    0.0000 O   0  0  0  0  0  0  0  0  0  0  0  0
   -6.7741   -5.7706    0.0000 O   0  0  0  0  0  0  0  0  0  0  0  0
  -10.9967   -2.1635    0.0000 O   0  0  0  0  0  0  0  0  0  0  0  0
   -5.5451    1.7247    0.0000 O   0  0  0  0  0  0  0  0  0  0  0  0
  -15.6940   -5.2072    0.0000 O   0  0  0  0  0  0  0  0  0  0  0  0
   -0.1948    0.9346    0.0000 O   0  0  0  0  0  0  0  0  0  0  0  0
    4.1602   -5.1715    0.0000 O   0  0  0  0  0  0  0  0  0  0  0  0
   -5.7940    4.3108    0.0000 O   0  0  0  0  0  0  0  0  0  0  0  0
    4.5334   -1.2204    0.0000 O   0  0  0  0  0  0  0  0  0  0  0  0
    0.6800   -6.0580    0.0000 O   0  0  0  0  0  0  0  0  0  0  0  0
    1.4228   -8.0450    0.0000 O   0  0  0  0  0  0  0  0  0  0  0  0
    3.4099   -7.3022    0.0000 O   0  0  0  0  0  0  0  0  0  0  0  0
    6.5243   -6.2490    0.0000 O   0  0  0  0  0  0  0  0  0  0  0  0
    6.6486    0.2882    0.0000 O   0  0  0  0  0  0  0  0  0  0  0  0
   -4.6741    0.5035    0.0000 N   0  0  0  0  0  0  0  0  0  0  0  0
    3.9113   -2.5854    0.0000 N   0  0  0  0  0  0  0  0  0  0  0  0
   -6.7893   -1.0051    0.0000 C   0  0  0  0  0  0  0  0  0  0  0  0
   -5.2962   -0.8614    0.0000 C   0  0  0  0  0  0  0  0  0  0  0  0
   -7.4114   -2.3700    0.0000 C   0  0  0  0  0  0  0  0  0  0  0  0
   -6.5404   -3.5912    0.0000 C   0  0  0  0  0  0  0  0  0  0  0  0
   -4.4252   -2.0826    0.0000 C   0  0  0  0  0  0  0  0  0  0  0  0
   -7.1625   -4.9562    0.0000 C   0  0  0  0  0  0  0  0  0  0  0  0
   -0.5680   -3.0164    0.0000 C   0  0  0  0  0  0  0  0  0  0  0  0
    0.0541   -1.6515    0.0000 C   0  0  0  0  0  0  0  0  0  0  0  0
    1.5472   -1.5078    0.0000 C   0  0  0  0  0  0  0  0  0  0  0  0
   -9.2778   -6.4648    0.0000 C   0  0  0  0  0  0  0  0  0  0  0  0
    2.4182   -2.7291    0.0000 C   0  0  0  0  0  0  0  0  0  0  0  0
   -2.0611   -3.1601    0.0000 C   0  0  0  0  0  0  0  0  0  0  0  0
   -9.3955   -7.9601    0.0000 C   0  0  0  0  0  0  0  0  0  0  0  0
  -11.8678   -6.2608    0.0000 C   0  0  0  0  0  0  0  0  0  0  0  0
  -10.7494   -8.6058    0.0000 C   0  0  0  0  0  0  0  0  0  0  0  0
  -11.9856   -7.7562    0.0000 C   0  0  0  0  0  0  0  0  0  0  0  0
    1.7961   -4.0940    0.0000 C   0  0  0  0  0  0  0  0  0  0  0  0
  -13.1040   -5.4111    0.0000 C   0  0  0  0  0  0  0  0  0  0  0  0
   -3.1810    0.6472    0.0000 C   0  0  0  0  0  0  0  0  0  0  0  0
   -7.8255   -6.8404    0.0000 C   0  0  0  0  0  0  0  0  0  0  0  0
   -7.0382    1.5810    0.0000 C   0  0  0  0  0  0  0  0  0  0  0  0
   -2.5589    2.0121    0.0000 C   0  0  0  0  0  0  0  0  0  0  0  0
  -14.4579   -6.0568    0.0000 C   0  0  0  0  0  0  0  0  0  0  0  0
   -7.9092    2.8022    0.0000 C   0  0  0  0  0  0  0  0  0  0  0  0
    4.7823   -3.8066    0.0000 C   0  0  0  0  0  0  0  0  0  0  0  0
   -1.0658    2.1558    0.0000 C   0  0  0  0  0  0  0  0  0  0  0  0
    3.6624    0.0008    0.0000 C   0  0  0  0  0  0  0  0  0  0  0  0
   -7.2871    4.1671    0.0000 C   0  0  0  0  0  0  0  0  0  0  0  0
    6.2754   -3.6629    0.0000 C   0  0  0  0  0  0  0  0  0  0  0  0
   -0.4437    3.5207    0.0000 C   0  0  0  0  0  0  0  0  0  0  0  0
    4.2845    1.3657    0.0000 C   0  0  0  0  0  0  0  0  0  0  0  0
   -8.1581    5.3884    0.0000 C   0  0  0  0  0  0  0  0  0  0  0  0
    7.1464   -4.8841    0.0000 C   0  0  0  0  0  0  0  0  0  0  0  0
    1.0494    3.6644    0.0000 C   0  0  0  0  0  0  0  0  0  0  0  0
    5.7776    1.5094    0.0000 C   0  0  0  0  0  0  0  0  0  0  0  0
    8.6395   -4.7404    0.0000 C   0  0  0  0  0  0  0  0  0  0  0  0
   -7.5360    6.7533    0.0000 C   0  0  0  0  0  0  0  0  0  0  0  0
    1.6715    5.0293    0.0000 C   0  0  0  0  0  0  0  0  0  0  0  0
    6.3997    2.8743    0.0000 C   0  0  0  0  0  0  0  0  0  0  0  0
    9.5105   -5.9616    0.0000 C   0  0  0  0  0  0  0  0  0  0  0  0
   -8.4070    7.9745    0.0000 C   0  0  0  0  0  0  0  0  0  0  0  0
    3.1646    5.1730    0.0000 C   0  0  0  0  0  0  0  0  0  0  0  0
    7.8928    3.0180    0.0000 C   0  0  0  0  0  0  0  0  0  0  0  0
   11.0036   -5.8179    0.0000 C   0  0  0  0  0  0  0  0  0  0  0  0
   -7.7849    9.3394    0.0000 C   0  0  0  0  0  0  0  0  0  0  0  0
    3.7867    6.5379    0.0000 C   0  0  0  0  0  0  0  0  0  0  0  0
    8.5149    4.3829    0.0000 C   0  0  0  0  0  0  0  0  0  0  0  0
   11.8746   -7.0391    0.0000 C   0  0  0  0  0  0  0  0  0  0  0  0
   -8.6559   10.5606    0.0000 C   0  0  0  0  0  0  0  0  0  0  0  0
   10.0080    4.5266    0.0000 C   0  0  0  0  0  0  0  0  0  0  0  0
    5.2798    6.6816    0.0000 C   0  0  0  0  0  0  0  0  0  0  0  0
   13.3677   -6.8954    0.0000 C   0  0  0  0  0  0  0  0  0  0  0  0
   -8.0338   11.9255    0.0000 C   0  0  0  0  0  0  0  0  0  0  0  0
   10.6301    5.8915    0.0000 C   0  0  0  0  0  0  0  0  0  0  0  0
    5.9019    8.0465    0.0000 C   0  0  0  0  0  0  0  0  0  0  0  0
   14.2387   -8.1166    0.0000 C   0  0  0  0  0  0  0  0  0  0  0  0
   -8.9048   13.1467    0.0000 C   0  0  0  0  0  0  0  0  0  0  0  0
   12.1232    6.0352    0.0000 C   0  0  0  0  0  0  0  0  0  0  0  0
    7.3950    8.1902    0.0000 C   0  0  0  0  0  0  0  0  0  0  0  0
   15.7318   -7.9729    0.0000 C   0  0  0  0  0  0  0  0  0  0  0  0
   -8.2827   14.5116    0.0000 C   0  0  0  0  0  0  0  0  0  0  0  0
   12.7453    7.4001    0.0000 C   0  0  0  0  0  0  0  0  0  0  0  0
    8.0171    9.5552    0.0000 C   0  0  0  0  0  0  0  0  0  0  0  0
   16.6028   -9.1942    0.0000 C   0  0  0  0  0  0  0  0  0  0  0  0
   -9.1537   15.7329    0.0000 C   0  0  0  0  0  0  0  0  0  0  0  0
   14.2384    7.5438    0.0000 C   0  0  0  0  0  0  0  0  0  0  0  0
   18.0959   -9.0505    0.0000 C   0  0  0  0  0  0  0  0  0  0  0  0
    9.5102    9.6989    0.0000 C   0  0  0  0  0  0  0  0  0  0  0  0
   14.8605    8.9087    0.0000 C   0  0  0  0  0  0  0  0  0  0  0  0
   -8.5316   17.0978    0.0000 C   0  0  0  0  0  0  0  0  0  0  0  0
   18.9669  -10.2717    0.0000 C   0  0  0  0  0  0  0  0  0  0  0  0
   16.3536    9.0524    0.0000 C   0  0  0  0  0  0  0  0  0  0  0  0
   10.1323   11.0638    0.0000 C   0  0  0  0  0  0  0  0  0  0  0  0
   -9.4026   18.3190    0.0000 C   0  0  0  0  0  0  0  0  0  0  0  0
   20.4600  -10.1280    0.0000 C   0  0  0  0  0  0  0  0  0  0  0  0
   16.9757   10.4173    0.0000 C   0  0  0  0  0  0  0  0  0  0  0  0
  1  7  1  0
  1 18  1  0
  1 19  1  0
  1 21  2  0
  2 12  1  0
  2 28  1  0
  2 29  1  0
  2 30  2  0
  3 38  1  0
  3 39  1  0
  4 39  1  0
  4 46  1  0
  5 40  1  0
  5 44  1  0
  6 35  1  0
  6 55  1  0
  7 37  1  0
  8 41  1  0
  8 51  1  0
  9 44  1  0
  9 48  1  0
 10 43  1  0
 10 61  1  0
 11 42  1  0
 12 51  1  0
 13 49  1  0
 14 50  1  0
 15 52  1  0
 16 54  1  0
 17 53  2  0
 20 54  2  0
 22 55  2  0
 23 57  1  0
 24 60  1  0
 25 59  2  0
 26 62  1  0
 27 61  2  0
 31 67  1  0
 32 69  1  0
 33 36  1  0
 33 53  1  0
 34 45  1  0
 34 59  1  0
 35 36  1  0
 35 37  1  0
 36 39  1  0
 37 38  1  0
 38 40  1  0
 41 42  1  0
 41 46  1  0
 42 43  1  0
 43 45  1  0
 44 47  1  0
 44 54  1  0
 45 51  1  0
 47 49  1  0
 48 50  1  0
 48 52  1  0
 49 50  1  0
 52 57  1  0
 53 56  1  0
 55 58  1  0
 56 60  1  0
 58 62  1  0
 59 63  1  0
 60 64  1  0
 61 65  1  0
 62 66  1  0
 63 67  1  0
 64 68  1  0
 65 69  1  0
 66 71  1  0
 67 70  1  0
 68 72  1  0
 69 73  1  0
 70 74  1  0
 71 75  1  0
 72 76  1  0
 73 77  1  0
 74 78  1  0
 75 79  1  0
 76 80  1  0
 77 81  1  0
 78 82  1  0
 79 83  1  0
 80 85  1  0
 81 84  1  0
 82 86  1  0
 83 87  1  0
 84 88  1  0
 85 89  1  0
 86 90  1  0
 87 91  1  0
 88 92  1  0
 89 93  1  0
 90 94  1  0
 91 95  1  0
 92 96  1  0
 93 97  1  0
 94 98  1  0
 95 99  1  0
 96100  1  0
 97102  1  0
 98101  1  0
 99104  1  0
100103  1  0
101105  1  0
102107  1  0
103106  1  0
104108  1  0
105109  1  0
106110  1  0
M  END
>  <PUBCHEM_COMPOUND_CID>  (1) 
819

>  <PUBCHEM_COMPOUND_CANONICALIZED>  (1) 
1

>  <PUBCHEM_CACTVS_COMPLEXITY>  (1) 
2580

>  <PUBCHEM_CACTVS_HBOND_ACCEPTOR>  (1) 
30

>  <PUBCHEM_CACTVS_HBOND_DONOR>  (1) 
16

>  <PUBCHEM_CACTVS_ROTATABLE_BOND>  (1) 
67

>  <PUBCHEM_CACTVS_SUBSKEYS>  (1) 
AAADcfB/PgMAAAAAAAAAAAAAAAAAAAAAAAAkSJAAAAAAAAAAAAAAHgAQCCAACDzxgAcCCALABxAIQAGQGIIAAAAAAAAAAIFIAAATEBYAgAQnQAAHNgCXAAH6/K/AAAAAAAAAAAAAAAAAAAAAAAAAAAAAAA==

>  <PUBCHEM_IUPAC_OPENEYE_NAME>  (1) 
6-(1,2-dihydroxyethyl)-4,5-dihydroxy-2-[[6-[[3-hydroxy-5-(3-hydroxytetradecanoylamino)-4-(3-hydroxytetradecanoyloxy)-6-phosphonooxy-tetrahydropyran-2-yl]methoxy]-5-(3-hydroxytetradecanoylamino)-4-(3-hydroxytetradecanoyloxy)-3-phosphonooxy-tetrahydropyran-2-yl]methoxy]tetrahydropyran-2-carboxylic acid

>  <PUBCHEM_IUPAC_CAS_NAME>  (1) 
6-(1,2-dihydroxyethyl)-4,5-dihydroxy-2-[[6-[[3-hydroxy-4-(3-hydroxy-1-oxotetradecoxy)-5-[(3-hydroxy-1-oxotetradecyl)amino]-6-phosphonooxy-2-oxanyl]methoxy]-4-(3-hydroxy-1-oxotetradecoxy)-5-[(3-hydroxy-1-oxotetradecyl)amino]-3-phosphonooxy-2-oxanyl]methoxy]-2-oxanecarboxylic acid

>  <PUBCHEM_IUPAC_NAME_MARKUP>  (1) 
6-(1,2-dihydroxyethyl)-4,5-dihydroxy-2-[[6-[[3-hydroxy-5-(3-hydroxytetradecanoylamino)-4-(3-hydroxytetradecanoyloxy)-6-phosphonooxyoxan-2-yl]methoxy]-5-(3-hydroxytetradecanoylamino)-4-(3-hydroxytetradecanoyloxy)-3-phosphonooxyoxan-2-yl]methoxy]oxane-2-carboxylic acid

>  <PUBCHEM_IUPAC_NAME>  (1) 
6-(1,2-dihydroxyethyl)-4,5-dihydroxy-2-[[6-[[3-hydroxy-5-(3-hydroxytetradecanoylamino)-4-(3-hydroxytetradecanoyloxy)-6-phosphonooxyoxan-2-yl]methoxy]-5-(3-hydroxytetradecanoylamino)-4-(3-hydroxytetradecanoyloxy)-3-phosphonooxyoxan-2-yl]methoxy]oxane-2-carboxylic acid

>  <PUBCHEM_IUPAC_SYSTEMATIC_NAME>  (1) 
6-[1,2-bis(oxidanyl)ethyl]-4,5-bis(oxidanyl)-2-[[6-[[3-oxidanyl-5-(3-oxidanyltetradecanoylamino)-4-(3-oxidanyltetradecanoyloxy)-6-phosphonooxy-oxan-2-yl]methoxy]-5-(3-oxidanyltetradecanoylamino)-4-(3-oxidanyltetradecanoyloxy)-3-phosphonooxy-oxan-2-yl]methoxy]oxane-2-carboxylic acid

>  <PUBCHEM_IUPAC_TRADITIONAL_NAME>  (1) 
6-(1,2-dihydroxyethyl)-4,5-dihydroxy-2-[[6-[[3-hydroxy-5-(3-hydroxytetradecanoylamino)-4-(3-hydroxytetradecanoyloxy)-6-phosphonooxy-tetrahydropyran-2-yl]methoxy]-5-(3-hydroxytetradecanoylamino)-4-(3-hydroxytetradecanoyloxy)-3-phosphonooxy-tetrahydropyran-2-yl]methoxy]tetrahydropyran-2-carboxylic acid

>  <PUBCHEM_IUPAC_INCHI>  (1) 
InChI=1S/C76H142N2O30P2/c1-5-9-13-17-21-25-29-33-37-41-53(80)45-61(86)77-65-71(104-63(88)47-55(82)43-39-35-31-27-23-19-15-11-7-3)68(91)59(102-74(65)108-110(97,98)99)51-100-73-66(78-62(87)46-54(81)42-38-34-30-26-22-18-14-10-6-2)72(105-64(89)48-56(83)44-40-36-32-28-24-20-16-12-8-4)70(107-109(94,95)96)60(103-73)52-101-76(75(92)93)49-57(84)67(90)69(106-76)58(85)50-79/h53-60,65-74,79-85,90-91H,5-52H2,1-4H3,(H,77,86)(H,78,87)(H,92,93)(H2,94,95,96)(H2,97,98,99)

>  <PUBCHEM_IUPAC_INCHIKEY>  (1) 
GPNCBCJEDRRCDW-UHFFFAOYSA-N

>  <PUBCHEM_XLOGP3_AA>  (1) 
12.5

>  <PUBCHEM_EXACT_MASS>  (1) 
1624.912265

>  <PUBCHEM_MOLECULAR_FORMULA>  (1) 
C76H142N2O30P2

>  <PUBCHEM_MOLECULAR_WEIGHT>  (1) 
1625.9

>  <PUBCHEM_OPENEYE_CAN_SMILES>  (1) 
CCCCCCCCCCCC(CC(=O)NC1C(C(C(OC1OP(=O)(O)O)COC2C(C(C(C(O2)COC3(CC(C(C(O3)C(CO)O)O)O)C(=O)O)OP(=O)(O)O)OC(=O)CC(CCCCCCCCCCC)O)NC(=O)CC(CCCCCCCCCCC)O)O)OC(=O)CC(CCCCCCCCCCC)O)O

>  <PUBCHEM_OPENEYE_ISO_SMILES>  (1) 
CCCCCCCCCCCC(CC(=O)NC1C(C(C(OC1OP(=O)(O)O)COC2C(C(C(C(O2)COC3(CC(C(C(O3)C(CO)O)O)O)C(=O)O)OP(=O)(O)O)OC(=O)CC(CCCCCCCCCCC)O)NC(=O)CC(CCCCCCCCCCC)O)O)OC(=O)CC(CCCCCCCCCCC)O)O

>  <PUBCHEM_CACTVS_TPSA>  (1) 
510

>  <PUBCHEM_MONOISOTOPIC_WEIGHT>  (1) 
1624.912265

>  <PUBCHEM_TOTAL_CHARGE>  (1) 
0

>  <PUBCHEM_HEAVY_ATOM_COUNT>  (1) 
110

>  <PUBCHEM_ATOM_DEF_STEREO_COUNT>  (1) 
0

>  <PUBCHEM_ATOM_UDEF_STEREO_COUNT>  (1) 
19

>  <PUBCHEM_BOND_DEF_STEREO_COUNT>  (1) 
0

>  <PUBCHEM_BOND_UDEF_STEREO_COUNT>  (1) 
0

>  <PUBCHEM_ISOTOPIC_ATOM_COUNT>  (1) 
0

>  <PUBCHEM_COMPONENT_COUNT>  (1) 
1

>  <PUBCHEM_CACTVS_TAUTO_COUNT>  (1) 
-1

>  <PUBCHEM_COORDINATE_TYPE>  (1) 
1
5
255

>  <PUBCHEM_BONDANNOTATIONS>  (1) 
43  10  3
42  11  3
51  12  3
49  13  3
50  14  3
52  15  3
60  24  3
62  26  3
67  31  3
69  32  3
36  33  3
45  34  3
38  40  3
39  4  3
41  46  3
44  54  3
35  6  3
37  7  3
48  9  3

$$$$
