821
     RDKit          2D

157160  0  0  1  0  0  0  0  0999 V2000
   10.1645   -2.3277    0.0000 P   0  0  0  0  0  0  0  0  0  0  0  0
    0.6127    6.4765    0.0000 P   0  0  0  0  0  0  0  0  0  0  0  0
    1.1824    9.0113    0.0000 P   0  0  0  0  0  0  0  0  0  0  0  0
    8.8483    5.8597    0.0000 O   0  0  0  0  0  0  0  0  0  0  0  0
   12.6365    3.4307    0.0000 O   0  0  0  0  0  0  0  0  0  0  0  0
   10.2874    1.6391    0.0000 O   0  0  0  0  0  0  0  0  0  0  0  0
    6.3438    1.1940    0.0000 O   0  0  0  0  0  0  0  0  0  0  0  0
    7.0689    6.6028    0.0000 O   0  0  0  0  0  0  0  0  0  0  0  0
   11.5134    7.2371    0.0000 O   0  0  0  0  0  0  0  0  0  0  0  0
    3.8637    0.4200    0.0000 O   0  0  0  0  0  0  0  0  0  0  0  0
    9.7176   -0.8958    0.0000 O   0  0  0  0  0  0  0  0  0  0  0  0
    7.6844   -3.1017    0.0000 O   0  0  0  0  0  0  0  0  0  0  0  0
    4.0191    3.2940    0.0000 O   0  0  0  0  0  0  0  0  0  0  0  0
    3.1253    6.1577    0.0000 O   0  0  0  0  0  0  0  0  0  0  0  0
    1.5064    3.6127    0.0000 O   0  0  0  0  0  0  0  0  0  0  0  0
   14.1087    7.1162    0.0000 O   0  0  0  0  0  0  0  0  0  0  0  0
   11.6356    0.1652    0.0000 O   0  0  0  0  0  0  0  0  0  0  0  0
    3.6951    8.6926    0.0000 O   0  0  0  0  0  0  0  0  0  0  0  0
   -1.5434    0.3038    0.0000 O   0  0  0  0  0  0  0  0  0  0  0  0
   13.7014    1.7408    0.0000 O   0  0  0  0  0  0  0  0  0  0  0  0
    7.8474    2.5941    0.0000 O   0  0  0  0  0  0  0  0  0  0  0  0
    1.3836   -0.3540    0.0000 O   0  0  0  0  0  0  0  0  0  0  0  0
   16.6341    5.4969    0.0000 O   0  0  0  0  0  0  0  0  0  0  0  0
   -0.4039    5.3735    0.0000 O   0  0  0  0  0  0  0  0  0  0  0  0
    9.3052    3.8754    0.0000 O   0  0  0  0  0  0  0  0  0  0  0  0
    5.7283   10.8985    0.0000 O   0  0  0  0  0  0  0  0  0  0  0  0
    8.7326   -2.7745    0.0000 O   0  0  0  0  0  0  0  0  0  0  0  0
   10.6114   -3.7596    0.0000 O   0  0  0  0  0  0  0  0  0  0  0  0
    2.8471   -0.6830    0.0000 O   0  0  0  0  0  0  0  0  0  0  0  0
   11.5964   -1.8808    0.0000 O   0  0  0  0  0  0  0  0  0  0  0  0
    5.2043   -3.8757    0.0000 O   0  0  0  0  0  0  0  0  0  0  0  0
    0.3670   -1.4570    0.0000 O   0  0  0  0  0  0  0  0  0  0  0  0
    4.6346   -6.4105    0.0000 O   0  0  0  0  0  0  0  0  0  0  0  0
    1.6293    7.5794    0.0000 O   0  0  0  0  0  0  0  0  0  0  0  0
   -1.8674    5.7024    0.0000 O   0  0  0  0  0  0  0  0  0  0  0  0
   -0.4903    7.4931    0.0000 O   0  0  0  0  0  0  0  0  0  0  0  0
   -3.7870    1.9140    0.0000 O   0  0  0  0  0  0  0  0  0  0  0  0
    1.7156    5.4598    0.0000 O   0  0  0  0  0  0  0  0  0  0  0  0
   -3.7778    7.4633    0.0000 O   0  0  0  0  0  0  0  0  0  0  0  0
   -5.9339    1.2906    0.0000 O   0  0  0  0  0  0  0  0  0  0  0  0
   -2.1131   -2.2310    0.0000 O   0  0  0  0  0  0  0  0  0  0  0  0
    4.0648   -8.9454    0.0000 O   0  0  0  0  0  0  0  0  0  0  0  0
   -0.2495    8.5644    0.0000 O   0  0  0  0  0  0  0  0  0  0  0  0
    0.7355   10.4432    0.0000 O   0  0  0  0  0  0  0  0  0  0  0  0
    2.6143    9.4582    0.0000 O   0  0  0  0  0  0  0  0  0  0  0  0
    4.7574   -2.4438    0.0000 N   0  0  0  0  0  0  0  0  0  0  0  0
   -2.4372    3.1676    0.0000 N   0  0  0  0  0  0  0  0  0  0  0  0
   10.1111    5.0500    0.0000 C   0  0  0  0  0  0  0  0  0  0  0  0
   11.4436    5.7388    0.0000 C   0  0  0  0  0  0  0  0  0  0  0  0
   10.0413    3.5516    0.0000 C   0  0  0  0  0  0  0  0  0  0  0  0
   11.3040    2.7420    0.0000 C   0  0  0  0  0  0  0  0  0  0  0  0
   12.7063    4.9291    0.0000 C   0  0  0  0  0  0  0  0  0  0  0  0
    7.5158    5.1709    0.0000 C   0  0  0  0  0  0  0  0  0  0  0  0
    7.8073    0.8650    0.0000 C   0  0  0  0  0  0  0  0  0  0  0  0
    8.2541   -0.5668    0.0000 C   0  0  0  0  0  0  0  0  0  0  0  0
    7.2375   -1.6698    0.0000 C   0  0  0  0  0  0  0  0  0  0  0  0
    5.7740   -1.3409    0.0000 C   0  0  0  0  0  0  0  0  0  0  0  0
    6.4992    4.0680    0.0000 C   0  0  0  0  0  0  0  0  0  0  0  0
    5.3272    0.0910    0.0000 C   0  0  0  0  0  0  0  0  0  0  0  0
    5.6054    6.9318    0.0000 C   0  0  0  0  0  0  0  0  0  0  0  0
    5.0357    4.3969    0.0000 C   0  0  0  0  0  0  0  0  0  0  0  0
    8.8239    1.9680    0.0000 C   0  0  0  0  0  0  0  0  0  0  0  0
    4.5888    5.8288    0.0000 C   0  0  0  0  0  0  0  0  0  0  0  0
   14.0389    5.6178    0.0000 C   0  0  0  0  0  0  0  0  0  0  0  0
   12.2136    1.5493    0.0000 C   0  0  0  0  0  0  0  0  0  0  0  0
    5.1586    8.3636    0.0000 C   0  0  0  0  0  0  0  0  0  0  0  0
    1.9533    2.1808    0.0000 C   0  0  0  0  0  0  0  0  0  0  0  0
    8.4255    3.9782    0.0000 C   0  0  0  0  0  0  0  0  0  0  0  0
    0.9367    1.0778    0.0000 C   0  0  0  0  0  0  0  0  0  0  0  0
    3.4168    1.8519    0.0000 C   0  0  0  0  0  0  0  0  0  0  0  0
   -0.5268    1.4068    0.0000 C   0  0  0  0  0  0  0  0  0  0  0  0
   15.3016    4.8082    0.0000 C   0  0  0  0  0  0  0  0  0  0  0  0
   -0.9737    2.8387    0.0000 C   0  0  0  0  0  0  0  0  0  0  0  0
    0.0429    3.9416    0.0000 C   0  0  0  0  0  0  0  0  0  0  0  0
    6.1752    9.4666    0.0000 C   0  0  0  0  0  0  0  0  0  0  0  0
    3.2939   -2.1149    0.0000 C   0  0  0  0  0  0  0  0  0  0  0  0
    6.6678   -4.2046    0.0000 C   0  0  0  0  0  0  0  0  0  0  0  0
    2.2773   -3.2178    0.0000 C   0  0  0  0  0  0  0  0  0  0  0  0
    7.1147   -5.6365    0.0000 C   0  0  0  0  0  0  0  0  0  0  0  0
    0.8138   -2.8889    0.0000 C   0  0  0  0  0  0  0  0  0  0  0  0
    6.0981   -6.7395    0.0000 C   0  0  0  0  0  0  0  0  0  0  0  0
   -2.8840    4.5995    0.0000 C   0  0  0  0  0  0  0  0  0  0  0  0
   -0.2028   -3.9918    0.0000 C   0  0  0  0  0  0  0  0  0  0  0  0
   -3.0069    0.6328    0.0000 C   0  0  0  0  0  0  0  0  0  0  0  0
    6.5449   -8.1714    0.0000 C   0  0  0  0  0  0  0  0  0  0  0  0
   -4.3475    4.9284    0.0000 C   0  0  0  0  0  0  0  0  0  0  0  0
   -1.6663   -3.6629    0.0000 C   0  0  0  0  0  0  0  0  0  0  0  0
   -4.0235   -0.4702    0.0000 C   0  0  0  0  0  0  0  0  0  0  0  0
    5.5283   -9.2743    0.0000 C   0  0  0  0  0  0  0  0  0  0  0  0
   -4.7944    6.3603    0.0000 C   0  0  0  0  0  0  0  0  0  0  0  0
   -2.6829   -4.7658    0.0000 C   0  0  0  0  0  0  0  0  0  0  0  0
   -5.4870   -0.1412    0.0000 C   0  0  0  0  0  0  0  0  0  0  0  0
    5.9752  -10.7062    0.0000 C   0  0  0  0  0  0  0  0  0  0  0  0
   -6.2579    6.6893    0.0000 C   0  0  0  0  0  0  0  0  0  0  0  0
   -4.1464   -4.4369    0.0000 C   0  0  0  0  0  0  0  0  0  0  0  0
   -6.5036   -1.2442    0.0000 C   0  0  0  0  0  0  0  0  0  0  0  0
   -1.0965   -1.1281    0.0000 C   0  0  0  0  0  0  0  0  0  0  0  0
    4.9586  -11.8091    0.0000 C   0  0  0  0  0  0  0  0  0  0  0  0
   -6.7048    8.1211    0.0000 C   0  0  0  0  0  0  0  0  0  0  0  0
    3.6180   -7.5135    0.0000 C   0  0  0  0  0  0  0  0  0  0  0  0
   -7.9671   -0.9153    0.0000 C   0  0  0  0  0  0  0  0  0  0  0  0
   -5.1630   -5.5399    0.0000 C   0  0  0  0  0  0  0  0  0  0  0  0
   -1.5434    0.3038    0.0000 C   0  0  0  0  0  0  0  0  0  0  0  0
    5.4055  -13.2410    0.0000 C   0  0  0  0  0  0  0  0  0  0  0  0
   -8.1683    8.4501    0.0000 C   0  0  0  0  0  0  0  0  0  0  0  0
    2.1545   -7.1845    0.0000 C   0  0  0  0  0  0  0  0  0  0  0  0
   -8.9837   -2.0182    0.0000 C   0  0  0  0  0  0  0  0  0  0  0  0
   -6.6265   -5.2109    0.0000 C   0  0  0  0  0  0  0  0  0  0  0  0
   -3.0069    0.6328    0.0000 C   0  0  0  0  0  0  0  0  0  0  0  0
    4.3888  -14.3440    0.0000 C   0  0  0  0  0  0  0  0  0  0  0  0
   -8.6151    9.8820    0.0000 C   0  0  0  0  0  0  0  0  0  0  0  0
    1.1379   -8.2875    0.0000 C   0  0  0  0  0  0  0  0  0  0  0  0
  -10.4472   -1.6893    0.0000 C   0  0  0  0  0  0  0  0  0  0  0  0
   -7.6431   -6.3139    0.0000 C   0  0  0  0  0  0  0  0  0  0  0  0
   -3.4538    2.0647    0.0000 C   0  0  0  0  0  0  0  0  0  0  0  0
  -10.0786   10.2109    0.0000 C   0  0  0  0  0  0  0  0  0  0  0  0
    4.8357  -15.7759    0.0000 C   0  0  0  0  0  0  0  0  0  0  0  0
   -0.3256   -7.9586    0.0000 C   0  0  0  0  0  0  0  0  0  0  0  0
  -11.4638   -2.7922    0.0000 C   0  0  0  0  0  0  0  0  0  0  0  0
   -9.1066   -5.9849    0.0000 C   0  0  0  0  0  0  0  0  0  0  0  0
   -4.9173    2.3936    0.0000 C   0  0  0  0  0  0  0  0  0  0  0  0
  -10.5255   11.6428    0.0000 C   0  0  0  0  0  0  0  0  0  0  0  0
    3.8191  -16.8788    0.0000 C   0  0  0  0  0  0  0  0  0  0  0  0
   -1.3423   -9.0615    0.0000 C   0  0  0  0  0  0  0  0  0  0  0  0
  -12.9273   -2.4633    0.0000 C   0  0  0  0  0  0  0  0  0  0  0  0
  -10.1232   -7.0879    0.0000 C   0  0  0  0  0  0  0  0  0  0  0  0
   -5.3641    3.8255    0.0000 C   0  0  0  0  0  0  0  0  0  0  0  0
  -11.9890   11.9717    0.0000 C   0  0  0  0  0  0  0  0  0  0  0  0
   -2.8057   -8.7326    0.0000 C   0  0  0  0  0  0  0  0  0  0  0  0
    4.2660  -18.3107    0.0000 C   0  0  0  0  0  0  0  0  0  0  0  0
  -13.9439   -3.5662    0.0000 C   0  0  0  0  0  0  0  0  0  0  0  0
   -6.8276    4.1544    0.0000 C   0  0  0  0  0  0  0  0  0  0  0  0
  -12.4359   13.4036    0.0000 C   0  0  0  0  0  0  0  0  0  0  0  0
  -11.5867   -6.7589    0.0000 C   0  0  0  0  0  0  0  0  0  0  0  0
   -3.8224   -9.8355    0.0000 C   0  0  0  0  0  0  0  0  0  0  0  0
  -15.4074   -3.2373    0.0000 C   0  0  0  0  0  0  0  0  0  0  0  0
    3.2494  -19.4137    0.0000 C   0  0  0  0  0  0  0  0  0  0  0  0
   -7.2745    5.5863    0.0000 C   0  0  0  0  0  0  0  0  0  0  0  0
  -13.8993   13.7326    0.0000 C   0  0  0  0  0  0  0  0  0  0  0  0
   -5.2858   -9.5066    0.0000 C   0  0  0  0  0  0  0  0  0  0  0  0
  -16.4240   -4.3402    0.0000 C   0  0  0  0  0  0  0  0  0  0  0  0
  -12.6033   -7.8619    0.0000 C   0  0  0  0  0  0  0  0  0  0  0  0
   -8.7380    5.9152    0.0000 C   0  0  0  0  0  0  0  0  0  0  0  0
   -6.3025  -10.6095    0.0000 C   0  0  0  0  0  0  0  0  0  0  0  0
    3.6962  -20.8455    0.0000 C   0  0  0  0  0  0  0  0  0  0  0  0
  -14.3462   15.1644    0.0000 C   0  0  0  0  0  0  0  0  0  0  0  0
  -17.8875   -4.0113    0.0000 C   0  0  0  0  0  0  0  0  0  0  0  0
   -9.1849    7.3471    0.0000 C   0  0  0  0  0  0  0  0  0  0  0  0
   -7.7659  -10.2806    0.0000 C   0  0  0  0  0  0  0  0  0  0  0  0
  -15.8097   15.4934    0.0000 C   0  0  0  0  0  0  0  0  0  0  0  0
   -8.7826  -11.3835    0.0000 C   0  0  0  0  0  0  0  0  0  0  0  0
  -10.6484    7.6761    0.0000 C   0  0  0  0  0  0  0  0  0  0  0  0
  -18.9041   -5.1143    0.0000 C   0  0  0  0  0  0  0  0  0  0  0  0
  -10.2460  -11.0546    0.0000 C   0  0  0  0  0  0  0  0  0  0  0  0
  -11.0952    9.1080    0.0000 C   0  0  0  0  0  0  0  0  0  0  0  0
  -11.2627  -12.1576    0.0000 C   0  0  0  0  0  0  0  0  0  0  0  0
  -12.7261  -11.8286    0.0000 C   0  0  0  0  0  0  0  0  0  0  0  0
  1 11  1  0
  1 27  1  0
  1 28  1  0
  1 30  2  0
  2 24  1  0
  2 34  1  0
  2 36  1  0
  2 38  2  0
  3 34  1  0
  3 43  1  0
  3 44  1  0
  3 45  2  0
  4 48  1  0
  4 53  1  0
  5 51  1  0
  5 52  1  0
  6 51  1  0
  6 62  1  0
  7 54  1  0
  7 59  1  0
  8 53  1  0
  8 60  1  0
  9 49  1  0
 10 59  1  0
 10 70  1  0
 11 55  1  0
 12 56  1  0
 12 77  1  0
 13 61  1  0
 14 63  1  0
 15 67  1  0
 15 74  1  0
 16 64  1  0
 17 65  1  0
 18 66  1  0
 19 71  1  0
 19 84  1  0
 20 65  2  0
 21 68  1  0
 22 69  1  0
 23 72  1  0
 24 74  1  0
 25 68  2  0
 26 75  1  0
 29 76  2  0
 31 77  2  0
 32 80  1  0
 32 97  1  0
 33 81  1  0
 33100  1  0
 35 82  2  0
 37 84  2  0
 39 90  1  0
 40 92  1  0
 41 97  2  0
 42100  2  0
 46 57  1  0
 46 76  1  0
 47 73  1  0
 47 82  1  0
 48 49  1  0
 48 50  1  0
 49 52  1  0
 50 51  1  0
 51 65  1  0
 52 64  1  0
 53 58  1  0
 53 68  1  0
 54 55  1  0
 54 62  1  0
 55 56  1  0
 56 57  1  0
 57 59  1  0
 58 61  1  0
 60 63  1  0
 60 66  1  0
 61 63  1  0
 64 72  1  0
 66 75  1  0
 67 69  1  0
 67 70  1  0
 69 71  1  0
 71 73  1  0
 73 74  1  0
 76 78  1  0
 77 79  1  0
 78 80  1  0
 79 81  1  0
 80 83  1  0
 81 85  1  0
 82 86  1  0
 83 87  1  0
 84 88  1  0
 85 89  1  0
 86 90  1  0
 87 91  1  0
 88 92  1  0
 89 93  1  0
 90 94  1  0
 91 95  1  0
 92 96  1  0
 93 98  1  0
 94 99  1  0
 95102  1  0
 96101  1  0
 97103  1  0
 98104  1  0
 99105  1  0
100106  1  0
101107  1  0
102108  1  0
103109  1  0
104110  1  0
105111  1  0
106112  1  0
107113  1  0
108114  1  0
109115  1  0
110117  1  0
111116  1  0
112118  1  0
113119  1  0
114120  1  0
115121  1  0
116122  1  0
117123  1  0
118124  1  0
119125  1  0
120126  1  0
121127  1  0
122128  1  0
123130  1  0
124129  1  0
125131  1  0
126134  1  0
127132  1  0
128133  1  0
129135  1  0
130137  1  0
131136  1  0
132138  1  0
133139  1  0
134142  1  0
135140  1  0
136141  1  0
137145  1  0
138143  1  0
139146  1  0
140144  1  0
141147  1  0
143148  1  0
144149  1  0
146150  1  0
147153  1  0
148152  1  0
149151  1  0
151154  1  0
152155  1  0
154156  1  0
156157  1  0
M  END
>  <PUBCHEM_COMPOUND_CID>  (1) 
821

>  <PUBCHEM_COMPOUND_CANONICALIZED>  (1) 
1

>  <PUBCHEM_CACTVS_COMPLEXITY>  (1) 
3970

>  <PUBCHEM_CACTVS_HBOND_ACCEPTOR>  (1) 
42

>  <PUBCHEM_CACTVS_HBOND_DONOR>  (1) 
19

>  <PUBCHEM_CACTVS_ROTATABLE_BOND>  (1) 
100

>  <PUBCHEM_CACTVS_SUBSKEYS>  (1) 
AAADcfB/PgMAAAAAAAAAAAAAAAAAAAAAAAAkSJEgAAAAAAAAAAAAHgAQCCAACDzxgAcCCALABxAIQAGQGIIAAAAAAAAAAIFIAAATEBYAgAQnQAAHNgCXAAH6/K/AAAAAAAAAAAAAAAAAAAAAAAAAAAAAAA==

>  <PUBCHEM_IUPAC_OPENEYE_NAME>  (1) 
2-[2-carboxy-6-(1,2-dihydroxyethyl)-2-[[5-(3-dodecanoyloxytetradecanoylamino)-6-[[3-hydroxy-6-[hydroxy(phosphonooxy)phosphoryl]oxy-5-(3-hydroxytetradecanoylamino)-4-(3-hydroxytetradecanoyloxy)tetrahydropyran-2-yl]methoxy]-3-phosphonooxy-4-(3-tetradecanoyloxytetradecanoyloxy)tetrahydropyran-2-yl]methoxy]-5-hydroxy-tetrahydropyran-4-yl]oxy-6-(1,2-dihydroxyethyl)-4,5-dihydroxy-tetrahydropyran-2-carboxylic acid

>  <PUBCHEM_IUPAC_CAS_NAME>  (1) 
2-[[2-carboxy-6-(1,2-dihydroxyethyl)-5-hydroxy-2-[[6-[[3-hydroxy-4-(3-hydroxy-1-oxotetradecoxy)-5-[(3-hydroxy-1-oxotetradecyl)amino]-6-[hydroxy(phosphonooxy)phosphoryl]oxy-2-oxanyl]methoxy]-5-[[1-oxo-3-(1-oxododecoxy)tetradecyl]amino]-4-[1-oxo-3-(1-oxotetradecoxy)tetradecoxy]-3-phosphonooxy-2-oxanyl]methoxy]-4-oxanyl]oxy]-6-(1,2-dihydroxyethyl)-4,5-dihydroxy-2-oxanecarboxylic acid

>  <PUBCHEM_IUPAC_NAME_MARKUP>  (1) 
2-[2-carboxy-6-(1,2-dihydroxyethyl)-2-[[5-(3-dodecanoyloxytetradecanoylamino)-6-[[3-hydroxy-6-[hydroxy(phosphonooxy)phosphoryl]oxy-5-(3-hydroxytetradecanoylamino)-4-(3-hydroxytetradecanoyloxy)oxan-2-yl]methoxy]-3-phosphonooxy-4-(3-tetradecanoyloxytetradecanoyloxy)oxan-2-yl]methoxy]-5-hydroxyoxan-4-yl]oxy-6-(1,2-dihydroxyethyl)-4,5-dihydroxyoxane-2-carboxylic acid

>  <PUBCHEM_IUPAC_NAME>  (1) 
2-[2-carboxy-6-(1,2-dihydroxyethyl)-2-[[5-(3-dodecanoyloxytetradecanoylamino)-6-[[3-hydroxy-6-[hydroxy(phosphonooxy)phosphoryl]oxy-5-(3-hydroxytetradecanoylamino)-4-(3-hydroxytetradecanoyloxy)oxan-2-yl]methoxy]-3-phosphonooxy-4-(3-tetradecanoyloxytetradecanoyloxy)oxan-2-yl]methoxy]-5-hydroxyoxan-4-yl]oxy-6-(1,2-dihydroxyethyl)-4,5-dihydroxyoxane-2-carboxylic acid

>  <PUBCHEM_IUPAC_SYSTEMATIC_NAME>  (1) 
6-[1,2-bis(oxidanyl)ethyl]-2-[6-[1,2-bis(oxidanyl)ethyl]-2-carboxy-2-[[5-(3-dodecanoyloxytetradecanoylamino)-6-[[3-oxidanyl-6-[oxidanyl(phosphonooxy)phosphoryl]oxy-5-(3-oxidanyltetradecanoylamino)-4-(3-oxidanyltetradecanoyloxy)oxan-2-yl]methoxy]-3-phosphonooxy-4-(3-tetradecanoyloxytetradecanoyloxy)oxan-2-yl]methoxy]-5-oxidanyl-oxan-4-yl]oxy-4,5-bis(oxidanyl)oxane-2-carboxylic acid

>  <PUBCHEM_IUPAC_TRADITIONAL_NAME>  (1) 
2-[2-carboxy-6-(1,2-dihydroxyethyl)-5-hydroxy-2-[[6-[[3-hydroxy-6-[hydroxy(phosphonooxy)phosphoryl]oxy-5-(3-hydroxytetradecanoylamino)-4-(3-hydroxytetradecanoyloxy)tetrahydropyran-2-yl]methoxy]-5-(3-lauroyloxytetradecanoylamino)-3-phosphonooxy-4-(3-tetradecanoyloxytetradecanoyloxy)tetrahydropyran-2-yl]methoxy]tetrahydropyran-4-yl]oxy-6-(1,2-dihydroxyethyl)-4,5-dihydroxy-tetrahydropyran-2-carboxylic acid

>  <PUBCHEM_IUPAC_INCHI>  (1) 
InChI=1S/C110H203N2O42P3/c1-7-13-19-25-31-37-38-44-50-56-62-68-92(123)144-82(66-60-54-48-42-35-29-23-17-11-5)72-94(125)148-104-96(112-90(121)71-81(65-59-53-47-41-34-28-22-16-10-4)143-91(122)67-61-55-49-43-36-30-24-18-12-6)105(146-88(102(104)152-155(133,134)135)78-142-109(107(129)130)74-86(98(127)101(150-109)85(119)76-114)149-110(108(131)132)73-83(117)97(126)100(151-110)84(118)75-113)141-77-87-99(128)103(147-93(124)70-80(116)64-58-52-46-40-33-27-21-15-9-3)95(106(145-87)153-157(139,140)154-156(136,137)138)111-89(120)69-79(115)63-57-51-45-39-32-26-20-14-8-2/h79-88,95-106,113-119,126-128H,7-78H2,1-6H3,(H,111,120)(H,112,121)(H,129,130)(H,131,132)(H,139,140)(H2,133,134,135)(H2,136,137,138)

>  <PUBCHEM_IUPAC_INCHIKEY>  (1) 
FEIRMQZKCHCJCZ-UHFFFAOYSA-N

>  <PUBCHEM_XLOGP3_AA>  (1) 
21.6

>  <PUBCHEM_EXACT_MASS>  (1) 
2318.305684

>  <PUBCHEM_MOLECULAR_FORMULA>  (1) 
C110H203N2O42P3

>  <PUBCHEM_MOLECULAR_WEIGHT>  (1) 
2318.7

>  <PUBCHEM_OPENEYE_CAN_SMILES>  (1) 
CCCCCCCCCCCCCC(=O)OC(CCCCCCCCCCC)CC(=O)OC1C(C(OC(C1OP(=O)(O)O)COC2(CC(C(C(O2)C(CO)O)O)OC3(CC(C(C(O3)C(CO)O)O)O)C(=O)O)C(=O)O)OCC4C(C(C(C(O4)OP(=O)(O)OP(=O)(O)O)NC(=O)CC(CCCCCCCCCCC)O)OC(=O)CC(CCCCCCCCCCC)O)O)NC(=O)CC(CCCCCCCCCCC)OC(=O)CCCCCCCCCCC

>  <PUBCHEM_OPENEYE_ISO_SMILES>  (1) 
CCCCCCCCCCCCCC(=O)OC(CCCCCCCCCCC)CC(=O)OC1C(C(OC(C1OP(=O)(O)O)COC2(CC(C(C(O2)C(CO)O)O)OC3(CC(C(C(O3)C(CO)O)O)O)C(=O)O)C(=O)O)OCC4C(C(C(C(O4)OP(=O)(O)OP(=O)(O)O)NC(=O)CC(CCCCCCCCCCC)O)OC(=O)CC(CCCCCCCCCCC)O)O)NC(=O)CC(CCCCCCCCCCC)OC(=O)CCCCCCCCCCC

>  <PUBCHEM_CACTVS_TPSA>  (1) 
685

>  <PUBCHEM_MONOISOTOPIC_WEIGHT>  (1) 
2317.30233

>  <PUBCHEM_TOTAL_CHARGE>  (1) 
0

>  <PUBCHEM_HEAVY_ATOM_COUNT>  (1) 
157

>  <PUBCHEM_ATOM_DEF_STEREO_COUNT>  (1) 
0

>  <PUBCHEM_ATOM_UDEF_STEREO_COUNT>  (1) 
24

>  <PUBCHEM_BOND_DEF_STEREO_COUNT>  (1) 
0

>  <PUBCHEM_BOND_UDEF_STEREO_COUNT>  (1) 
0

>  <PUBCHEM_ISOTOPIC_ATOM_COUNT>  (1) 
0

>  <PUBCHEM_COMPONENT_COUNT>  (1) 
1

>  <PUBCHEM_CACTVS_TAUTO_COUNT>  (1) 
-1

>  <PUBCHEM_COORDINATE_TYPE>  (1) 
1
5
255

>  <PUBCHEM_BONDANNOTATIONS>  (1) 
59  10  3
55  11  3
56  12  3
61  13  3
63  14  3
64  16  3
66  18  3
71  19  3
69  22  3
74  24  3
90  39  3
48  4  3
92  40  3
57  46  3
73  47  3
52  5  3
51  65  3
53  68  3
54  62  3
67  70  3
60  8  3
80  83  3
81  85  3
49  9  3

$$$$
