822
     RDKit          2D

125128  0  0  1  0  0  0  0  0999 V2000
    7.9834   -3.7271    0.0000 P   0  0  0  0  0  0  0  0  0  0  0  0
   -0.6884    5.9450    0.0000 P   0  0  0  0  0  0  0  0  0  0  0  0
    8.4195    2.1373    0.0000 O   0  0  0  0  0  0  0  0  0  0  0  0
   10.2352    5.6662    0.0000 O   0  0  0  0  0  0  0  0  0  0  0  0
    8.4827    0.2100    0.0000 O   0  0  0  0  0  0  0  0  0  0  0  0
   11.9360    4.7573    0.0000 O   0  0  0  0  0  0  0  0  0  0  0  0
    4.5146    0.1418    0.0000 O   0  0  0  0  0  0  0  0  0  0  0  0
   12.5954    3.8142    0.0000 O   0  0  0  0  0  0  0  0  0  0  0  0
    1.9722   -0.3930    0.0000 O   0  0  0  0  0  0  0  0  0  0  0  0
    7.6746   -2.2592    0.0000 O   0  0  0  0  0  0  0  0  0  0  0  0
    5.4409   -4.2619    0.0000 O   0  0  0  0  0  0  0  0  0  0  0  0
    7.6632    6.0332    0.0000 O   0  0  0  0  0  0  0  0  0  0  0  0
   15.2865    7.7613    0.0000 O   0  0  0  0  0  0  0  0  0  0  0  0
   -0.0709    3.0093    0.0000 O   0  0  0  0  0  0  0  0  0  0  0  0
   15.9040    4.8255    0.0000 O   0  0  0  0  0  0  0  0  0  0  0  0
   15.0959    2.3563    0.0000 O   0  0  0  0  0  0  0  0  0  0  0  0
    9.6847   -1.3853    0.0000 O   0  0  0  0  0  0  0  0  0  0  0  0
   -3.4214    0.0053    0.0000 O   0  0  0  0  0  0  0  0  0  0  0  0
   -0.5702   -0.9278    0.0000 O   0  0  0  0  0  0  0  0  0  0  0  0
    9.3358    7.4497    0.0000 O   0  0  0  0  0  0  0  0  0  0  0  0
    4.8793    4.9153    0.0000 O   0  0  0  0  0  0  0  0  0  0  0  0
   11.8909   -0.0132    0.0000 O   0  0  0  0  0  0  0  0  0  0  0  0
   -1.8053    4.9437    0.0000 O   0  0  0  0  0  0  0  0  0  0  0  0
   11.5420    8.8218    0.0000 O   0  0  0  0  0  0  0  0  0  0  0  0
   12.8622    0.3537    0.0000 O   0  0  0  0  0  0  0  0  0  0  0  0
    6.5155   -4.0358    0.0000 O   0  0  0  0  0  0  0  0  0  0  0  0
    8.2921   -5.1950    0.0000 O   0  0  0  0  0  0  0  0  0  0  0  0
    0.8554   -1.3944    0.0000 O   0  0  0  0  0  0  0  0  0  0  0  0
    9.4512   -3.4183    0.0000 O   0  0  0  0  0  0  0  0  0  0  0  0
    2.8985   -4.7967    0.0000 O   0  0  0  0  0  0  0  0  0  0  0  0
   -1.6871   -1.9291    0.0000 O   0  0  0  0  0  0  0  0  0  0  0  0
    2.0904   -7.2659    0.0000 O   0  0  0  0  0  0  0  0  0  0  0  0
   -3.2309    5.4102    0.0000 O   0  0  0  0  0  0  0  0  0  0  0  0
   -5.1558    1.9397    0.0000 O   0  0  0  0  0  0  0  0  0  0  0  0
    0.3129    4.8282    0.0000 O   0  0  0  0  0  0  0  0  0  0  0  0
    0.4284    6.9464    0.0000 O   0  0  0  0  0  0  0  0  0  0  0  0
   -1.6898    7.0619    0.0000 O   0  0  0  0  0  0  0  0  0  0  0  0
   -4.9652    7.3447    0.0000 O   0  0  0  0  0  0  0  0  0  0  0  0
   -7.6982    1.4049    0.0000 O   0  0  0  0  0  0  0  0  0  0  0  0
    2.5897   -3.3288    0.0000 N   0  0  0  0  0  0  0  0  0  0  0  0
   -4.0390    2.9410    0.0000 N   0  0  0  0  0  0  0  0  0  0  0  0
   10.0233    4.1812    0.0000 C   0  0  0  0  0  0  0  0  0  0  0  0
    8.6314    3.6223    0.0000 C   0  0  0  0  0  0  0  0  0  0  0  0
   11.2034    3.2553    0.0000 C   0  0  0  0  0  0  0  0  0  0  0  0
    9.5995    1.2113    0.0000 C   0  0  0  0  0  0  0  0  0  0  0  0
   10.9915    1.7703    0.0000 C   0  0  0  0  0  0  0  0  0  0  0  0
   11.6272    6.2252    0.0000 C   0  0  0  0  0  0  0  0  0  0  0  0
    5.9402   -0.3248    0.0000 C   0  0  0  0  0  0  0  0  0  0  0  0
    6.2490   -1.7927    0.0000 C   0  0  0  0  0  0  0  0  0  0  0  0
    5.1322   -2.7940    0.0000 C   0  0  0  0  0  0  0  0  0  0  0  0
    3.7066   -2.3275    0.0000 C   0  0  0  0  0  0  0  0  0  0  0  0
   12.7440    7.2265    0.0000 C   0  0  0  0  0  0  0  0  0  0  0  0
    3.3978   -0.8596    0.0000 C   0  0  0  0  0  0  0  0  0  0  0  0
    7.4513    4.5483    0.0000 C   0  0  0  0  0  0  0  0  0  0  0  0
   13.3616    4.2907    0.0000 C   0  0  0  0  0  0  0  0  0  0  0  0
   14.1696    6.7600    0.0000 C   0  0  0  0  0  0  0  0  0  0  0  0
   14.4784    5.2921    0.0000 C   0  0  0  0  0  0  0  0  0  0  0  0
    7.0571    0.6765    0.0000 C   0  0  0  0  0  0  0  0  0  0  0  0
   13.6703    2.8229    0.0000 C   0  0  0  0  0  0  0  0  0  0  0  0
   10.3917   -0.0624    0.0000 C   0  0  0  0  0  0  0  0  0  0  0  0
    0.2378    1.5414    0.0000 C   0  0  0  0  0  0  0  0  0  0  0  0
   -0.8790    0.5401    0.0000 C   0  0  0  0  0  0  0  0  0  0  0  0
   10.8350    7.4989    0.0000 C   0  0  0  0  0  0  0  0  0  0  0  0
    6.0594    3.9893    0.0000 C   0  0  0  0  0  0  0  0  0  0  0  0
    1.6634    1.0749    0.0000 C   0  0  0  0  0  0  0  0  0  0  0  0
   -2.3046    1.0066    0.0000 C   0  0  0  0  0  0  0  0  0  0  0  0
   -2.6134    2.4745    0.0000 C   0  0  0  0  0  0  0  0  0  0  0  0
   -1.4965    3.4758    0.0000 C   0  0  0  0  0  0  0  0  0  0  0  0
   12.5535    1.8215    0.0000 C   0  0  0  0  0  0  0  0  0  0  0  0
    1.1641   -2.8622    0.0000 C   0  0  0  0  0  0  0  0  0  0  0  0
    4.3241   -5.2632    0.0000 C   0  0  0  0  0  0  0  0  0  0  0  0
    0.0473   -3.8636    0.0000 C   0  0  0  0  0  0  0  0  0  0  0  0
    4.6328   -6.7311    0.0000 C   0  0  0  0  0  0  0  0  0  0  0  0
   -1.3783   -3.3970    0.0000 C   0  0  0  0  0  0  0  0  0  0  0  0
   -4.3477    4.4089    0.0000 C   0  0  0  0  0  0  0  0  0  0  0  0
    3.5160   -7.7324    0.0000 C   0  0  0  0  0  0  0  0  0  0  0  0
   -4.8470    0.4718    0.0000 C   0  0  0  0  0  0  0  0  0  0  0  0
   -2.4952   -4.3984    0.0000 C   0  0  0  0  0  0  0  0  0  0  0  0
   -5.7733    4.8755    0.0000 C   0  0  0  0  0  0  0  0  0  0  0  0
    3.8248   -9.2003    0.0000 C   0  0  0  0  0  0  0  0  0  0  0  0
   -5.9639   -0.5295    0.0000 C   0  0  0  0  0  0  0  0  0  0  0  0
   -3.9208   -3.9318    0.0000 C   0  0  0  0  0  0  0  0  0  0  0  0
   -6.0821    6.3433    0.0000 C   0  0  0  0  0  0  0  0  0  0  0  0
    2.7079  -10.2016    0.0000 C   0  0  0  0  0  0  0  0  0  0  0  0
   -7.3895   -0.0630    0.0000 C   0  0  0  0  0  0  0  0  0  0  0  0
   -5.0376   -4.9331    0.0000 C   0  0  0  0  0  0  0  0  0  0  0  0
   -7.5077    6.8099    0.0000 C   0  0  0  0  0  0  0  0  0  0  0  0
    3.0167  -11.6695    0.0000 C   0  0  0  0  0  0  0  0  0  0  0  0
   -8.5063   -1.0643    0.0000 C   0  0  0  0  0  0  0  0  0  0  0  0
   -6.4632   -4.4666    0.0000 C   0  0  0  0  0  0  0  0  0  0  0  0
   -7.8164    8.2778    0.0000 C   0  0  0  0  0  0  0  0  0  0  0  0
    1.8998  -12.6708    0.0000 C   0  0  0  0  0  0  0  0  0  0  0  0
   -9.9319   -0.5978    0.0000 C   0  0  0  0  0  0  0  0  0  0  0  0
   -7.5800   -5.4679    0.0000 C   0  0  0  0  0  0  0  0  0  0  0  0
   -9.2420    8.7443    0.0000 C   0  0  0  0  0  0  0  0  0  0  0  0
    2.2086  -14.1387    0.0000 C   0  0  0  0  0  0  0  0  0  0  0  0
  -11.0488   -1.5991    0.0000 C   0  0  0  0  0  0  0  0  0  0  0  0
   -9.0056   -5.0014    0.0000 C   0  0  0  0  0  0  0  0  0  0  0  0
   -9.5508   10.2122    0.0000 C   0  0  0  0  0  0  0  0  0  0  0  0
    1.0918  -15.1401    0.0000 C   0  0  0  0  0  0  0  0  0  0  0  0
  -12.4744   -1.1325    0.0000 C   0  0  0  0  0  0  0  0  0  0  0  0
  -10.1225   -6.0027    0.0000 C   0  0  0  0  0  0  0  0  0  0  0  0
  -10.9764   10.6787    0.0000 C   0  0  0  0  0  0  0  0  0  0  0  0
  -13.5912   -2.1339    0.0000 C   0  0  0  0  0  0  0  0  0  0  0  0
    1.4005  -16.6079    0.0000 C   0  0  0  0  0  0  0  0  0  0  0  0
  -11.2852   12.1466    0.0000 C   0  0  0  0  0  0  0  0  0  0  0  0
  -11.5481   -5.5362    0.0000 C   0  0  0  0  0  0  0  0  0  0  0  0
  -15.0168   -1.6673    0.0000 C   0  0  0  0  0  0  0  0  0  0  0  0
    0.2837  -17.6093    0.0000 C   0  0  0  0  0  0  0  0  0  0  0  0
  -12.7108   12.6132    0.0000 C   0  0  0  0  0  0  0  0  0  0  0  0
  -12.6649   -6.5375    0.0000 C   0  0  0  0  0  0  0  0  0  0  0  0
  -16.1336   -2.6687    0.0000 C   0  0  0  0  0  0  0  0  0  0  0  0
    0.5924  -19.0771    0.0000 C   0  0  0  0  0  0  0  0  0  0  0  0
  -13.0195   14.0810    0.0000 C   0  0  0  0  0  0  0  0  0  0  0  0
  -17.5592   -2.2021    0.0000 C   0  0  0  0  0  0  0  0  0  0  0  0
  -14.0905   -6.0710    0.0000 C   0  0  0  0  0  0  0  0  0  0  0  0
   -0.5244  -20.0785    0.0000 C   0  0  0  0  0  0  0  0  0  0  0  0
  -14.4451   14.5476    0.0000 C   0  0  0  0  0  0  0  0  0  0  0  0
  -18.6761   -3.2034    0.0000 C   0  0  0  0  0  0  0  0  0  0  0  0
  -15.2074   -7.0723    0.0000 C   0  0  0  0  0  0  0  0  0  0  0  0
  -14.7539   16.0155    0.0000 C   0  0  0  0  0  0  0  0  0  0  0  0
   -0.2156  -21.5464    0.0000 C   0  0  0  0  0  0  0  0  0  0  0  0
  -20.1017   -2.7369    0.0000 C   0  0  0  0  0  0  0  0  0  0  0  0
  -16.1795   16.4820    0.0000 C   0  0  0  0  0  0  0  0  0  0  0  0
  -21.2185   -3.7382    0.0000 C   0  0  0  0  0  0  0  0  0  0  0  0
  1 10  1  0
  1 26  1  0
  1 27  1  0
  1 29  2  0
  2 23  1  0
  2 35  1  0
  2 36  1  0
  2 37  2  0
  3 43  1  0
  3 45  1  0
  4 42  1  0
  4 47  1  0
  5 45  1  0
  5 58  1  0
  6 47  1  0
  6 55  1  0
  7 48  1  0
  7 53  1  0
  8 44  1  0
  9 53  1  0
  9 65  1  0
 10 49  1  0
 11 50  1  0
 11 71  1  0
 12 54  1  0
 13 56  1  0
 14 61  1  0
 14 68  1  0
 15 57  1  0
 16 59  1  0
 17 60  1  0
 18 66  1  0
 18 77  1  0
 19 62  1  0
 20 63  1  0
 21 64  1  0
 22 60  2  0
 23 68  1  0
 24 63  2  0
 25 69  1  0
 28 70  2  0
 30 71  2  0
 31 74  1  0
 32 76  1  0
 33 75  2  0
 34 77  2  0
 38 83  1  0
 39 85  1  0
 40 51  1  0
 40 70  1  0
 41 67  1  0
 41 75  1  0
 42 43  1  0
 42 44  1  0
 43 54  1  0
 44 46  1  0
 45 46  1  0
 45 60  1  0
 47 52  1  0
 47 63  1  0
 48 49  1  0
 48 58  1  0
 49 50  1  0
 50 51  1  0
 51 53  1  0
 52 56  1  0
 54 64  1  0
 55 57  1  0
 55 59  1  0
 56 57  1  0
 59 69  1  0
 61 62  1  0
 61 65  1  0
 62 66  1  0
 66 67  1  0
 67 68  1  0
 70 72  1  0
 71 73  1  0
 72 74  1  0
 73 76  1  0
 74 78  1  0
 75 79  1  0
 76 80  1  0
 77 81  1  0
 78 82  1  0
 79 83  1  0
 80 84  1  0
 81 85  1  0
 82 86  1  0
 83 87  1  0
 84 88  1  0
 85 89  1  0
 86 90  1  0
 87 91  1  0
 88 92  1  0
 89 93  1  0
 90 94  1  0
 91 95  1  0
 92 96  1  0
 93 97  1  0
 94 98  1  0
 95 99  1  0
 96100  1  0
 97101  1  0
 98102  1  0
 99103  1  0
100105  1  0
101104  1  0
102107  1  0
103106  1  0
104108  1  0
105109  1  0
106110  1  0
107111  1  0
108112  1  0
109113  1  0
110114  1  0
111116  1  0
112115  1  0
113117  1  0
114118  1  0
115119  1  0
116120  1  0
117122  1  0
118121  1  0
119123  1  0
121124  1  0
123125  1  0
M  END
>  <PUBCHEM_COMPOUND_CID>  (1) 
822

>  <PUBCHEM_COMPOUND_CANONICALIZED>  (1) 
1

>  <PUBCHEM_CACTVS_COMPLEXITY>  (1) 
3090

>  <PUBCHEM_CACTVS_HBOND_ACCEPTOR>  (1) 
37

>  <PUBCHEM_CACTVS_HBOND_DONOR>  (1) 
20

>  <PUBCHEM_CACTVS_ROTATABLE_BOND>  (1) 
72

>  <PUBCHEM_CACTVS_SUBSKEYS>  (1) 
AAADcfB/PgMAAAAAAAAAAAAAAAAAAAAAAAAkSJEgAAAAAAAAAAAAHgAQCCAACDzxgAcCCALABxAIQAGQGIIAAAAAAAAAAIFIAAATEBYAgAQnQAAHNgCXAAH6/K/AAAAAAAAAAAAAAAAAAAAAAAAAAAAAAA==

>  <PUBCHEM_IUPAC_OPENEYE_NAME>  (1) 
2-[6-carboxy-2-(1,2-dihydroxyethyl)-4-hydroxy-6-[[6-[[3-hydroxy-5-(3-hydroxytetradecanoylamino)-4-(3-hydroxytetradecanoyloxy)-6-phosphonooxy-tetrahydropyran-2-yl]methoxy]-5-(3-hydroxytetradecanoylamino)-4-(3-hydroxytetradecanoyloxy)-3-phosphonooxy-tetrahydropyran-2-yl]methoxy]tetrahydropyran-3-yl]oxy-6-(1,2-dihydroxyethyl)-4,5-dihydroxy-tetrahydropyran-2-carboxylic acid

>  <PUBCHEM_IUPAC_CAS_NAME>  (1) 
2-[[6-carboxy-2-(1,2-dihydroxyethyl)-4-hydroxy-6-[[6-[[3-hydroxy-4-(3-hydroxy-1-oxotetradecoxy)-5-[(3-hydroxy-1-oxotetradecyl)amino]-6-phosphonooxy-2-oxanyl]methoxy]-4-(3-hydroxy-1-oxotetradecoxy)-5-[(3-hydroxy-1-oxotetradecyl)amino]-3-phosphonooxy-2-oxanyl]methoxy]-3-oxanyl]oxy]-6-(1,2-dihydroxyethyl)-4,5-dihydroxy-2-oxanecarboxylic acid

>  <PUBCHEM_IUPAC_NAME_MARKUP>  (1) 
2-[6-carboxy-2-(1,2-dihydroxyethyl)-4-hydroxy-6-[[6-[[3-hydroxy-5-(3-hydroxytetradecanoylamino)-4-(3-hydroxytetradecanoyloxy)-6-phosphonooxyoxan-2-yl]methoxy]-5-(3-hydroxytetradecanoylamino)-4-(3-hydroxytetradecanoyloxy)-3-phosphonooxyoxan-2-yl]methoxy]oxan-3-yl]oxy-6-(1,2-dihydroxyethyl)-4,5-dihydroxyoxane-2-carboxylic acid

>  <PUBCHEM_IUPAC_NAME>  (1) 
2-[6-carboxy-2-(1,2-dihydroxyethyl)-4-hydroxy-6-[[6-[[3-hydroxy-5-(3-hydroxytetradecanoylamino)-4-(3-hydroxytetradecanoyloxy)-6-phosphonooxyoxan-2-yl]methoxy]-5-(3-hydroxytetradecanoylamino)-4-(3-hydroxytetradecanoyloxy)-3-phosphonooxyoxan-2-yl]methoxy]oxan-3-yl]oxy-6-(1,2-dihydroxyethyl)-4,5-dihydroxyoxane-2-carboxylic acid

>  <PUBCHEM_IUPAC_SYSTEMATIC_NAME>  (1) 
6-[1,2-bis(oxidanyl)ethyl]-2-[2-[1,2-bis(oxidanyl)ethyl]-6-carboxy-4-oxidanyl-6-[[6-[[3-oxidanyl-5-(3-oxidanyltetradecanoylamino)-4-(3-oxidanyltetradecanoyloxy)-6-phosphonooxy-oxan-2-yl]methoxy]-5-(3-oxidanyltetradecanoylamino)-4-(3-oxidanyltetradecanoyloxy)-3-phosphonooxy-oxan-2-yl]methoxy]oxan-3-yl]oxy-4,5-bis(oxidanyl)oxane-2-carboxylic acid

>  <PUBCHEM_IUPAC_TRADITIONAL_NAME>  (1) 
2-[6-carboxy-2-(1,2-dihydroxyethyl)-4-hydroxy-6-[[6-[[3-hydroxy-5-(3-hydroxytetradecanoylamino)-4-(3-hydroxytetradecanoyloxy)-6-phosphonooxy-tetrahydropyran-2-yl]methoxy]-5-(3-hydroxytetradecanoylamino)-4-(3-hydroxytetradecanoyloxy)-3-phosphonooxy-tetrahydropyran-2-yl]methoxy]tetrahydropyran-3-yl]oxy-6-(1,2-dihydroxyethyl)-4,5-dihydroxy-tetrahydropyran-2-carboxylic acid

>  <PUBCHEM_IUPAC_INCHI>  (1) 
InChI=1S/C84H154N2O37P2/c1-5-9-13-17-21-25-29-33-37-41-55(89)45-65(97)85-69-77(117-67(99)47-57(91)43-39-35-31-27-23-19-15-11-7-3)72(102)63(115-80(69)123-125(110,111)112)53-113-79-70(86-66(98)46-56(90)42-38-34-30-26-22-18-14-10-6-2)78(118-68(100)48-58(92)44-40-36-32-28-24-20-16-12-8-4)76(122-124(107,108)109)64(116-79)54-114-83(81(103)104)50-60(94)74(75(120-83)62(96)52-88)121-84(82(105)106)49-59(93)71(101)73(119-84)61(95)51-87/h55-64,69-80,87-96,101-102H,5-54H2,1-4H3,(H,85,97)(H,86,98)(H,103,104)(H,105,106)(H2,107,108,109)(H2,110,111,112)

>  <PUBCHEM_IUPAC_INCHIKEY>  (1) 
XYRZRSGHCARAIB-UHFFFAOYSA-N

>  <PUBCHEM_XLOGP3_AA>  (1) 
10.1

>  <PUBCHEM_EXACT_MASS>  (1) 
1844.970568

>  <PUBCHEM_MOLECULAR_FORMULA>  (1) 
C84H154N2O37P2

>  <PUBCHEM_MOLECULAR_WEIGHT>  (1) 
1846.1

>  <PUBCHEM_OPENEYE_CAN_SMILES>  (1) 
CCCCCCCCCCCC(CC(=O)NC1C(C(C(OC1OP(=O)(O)O)COC2C(C(C(C(O2)COC3(CC(C(C(O3)C(CO)O)OC4(CC(C(C(O4)C(CO)O)O)O)C(=O)O)O)C(=O)O)OP(=O)(O)O)OC(=O)CC(CCCCCCCCCCC)O)NC(=O)CC(CCCCCCCCCCC)O)O)OC(=O)CC(CCCCCCCCCCC)O)O

>  <PUBCHEM_OPENEYE_ISO_SMILES>  (1) 
CCCCCCCCCCCC(CC(=O)NC1C(C(C(OC1OP(=O)(O)O)COC2C(C(C(C(O2)COC3(CC(C(C(O3)C(CO)O)OC4(CC(C(C(O4)C(CO)O)O)O)C(=O)O)O)C(=O)O)OP(=O)(O)O)OC(=O)CC(CCCCCCCCCCC)O)NC(=O)CC(CCCCCCCCCCC)O)O)OC(=O)CC(CCCCCCCCCCC)O)O

>  <PUBCHEM_CACTVS_TPSA>  (1) 
626

>  <PUBCHEM_MONOISOTOPIC_WEIGHT>  (1) 
1844.970568

>  <PUBCHEM_TOTAL_CHARGE>  (1) 
0

>  <PUBCHEM_HEAVY_ATOM_COUNT>  (1) 
125

>  <PUBCHEM_ATOM_DEF_STEREO_COUNT>  (1) 
0

>  <PUBCHEM_ATOM_UDEF_STEREO_COUNT>  (1) 
24

>  <PUBCHEM_BOND_DEF_STEREO_COUNT>  (1) 
0

>  <PUBCHEM_BOND_UDEF_STEREO_COUNT>  (1) 
0

>  <PUBCHEM_ISOTOPIC_ATOM_COUNT>  (1) 
0

>  <PUBCHEM_COMPONENT_COUNT>  (1) 
1

>  <PUBCHEM_CACTVS_TAUTO_COUNT>  (1) 
-1

>  <PUBCHEM_COORDINATE_TYPE>  (1) 
1
5
255

>  <PUBCHEM_BONDANNOTATIONS>  (1) 
49  10  3
50  11  3
54  12  3
56  13  3
57  15  3
59  16  3
66  18  3
62  19  3
68  23  3
43  3  3
74  31  3
76  32  3
83  38  3
85  39  3
42  4  3
51  40  3
67  41  3
45  60  3
47  63  3
48  58  3
55  6  3
61  65  3
44  8  3
53  9  3

$$$$
