824
     RDKit          2D

  8  7  0  0  1  0  0  0  0  0999 V2000
   -2.9061   -0.4882    0.0000 O   0  0  0  0  0  0  0  0  0  0  0  0
   -1.6954    1.8105    0.0000 O   0  0  0  0  0  0  0  0  0  0  0  0
   -0.2517   -1.8862    0.0000 N   0  0  0  0  0  0  0  0  0  0  0  0
    0.9590    0.4126    0.0000 C   0  0  0  0  0  0  0  0  0  0  0  0
   -0.3100   -0.3873    0.0000 C   0  0  0  0  0  0  0  0  0  0  0  0
    2.2862   -0.2864    0.0000 C   0  0  0  0  0  0  0  0  0  0  0  0
    3.5551    0.5134    0.0000 C   0  0  0  0  0  0  0  0  0  0  0  0
   -1.6371    0.3117    0.0000 C   0  0  0  0  0  0  0  0  0  0  0  0
  1  8  1  0
  2  8  2  0
  3  5  1  0
  4  5  1  0
  4  6  1  0
  5  8  1  0
  6  7  1  0
M  END
>  <PUBCHEM_COMPOUND_CID>  (1) 
824

>  <PUBCHEM_COMPOUND_CANONICALIZED>  (1) 
1

>  <PUBCHEM_CACTVS_COMPLEXITY>  (1) 
82.5

>  <PUBCHEM_CACTVS_HBOND_ACCEPTOR>  (1) 
3

>  <PUBCHEM_CACTVS_HBOND_DONOR>  (1) 
2

>  <PUBCHEM_CACTVS_ROTATABLE_BOND>  (1) 
3

>  <PUBCHEM_CACTVS_SUBSKEYS>  (1) 
AAADccBiMAAAAAAAAAAAAAAAAAAAAAAAAAAAAAAAAAAAAAAAAAAAHgAQCAAACCjBgAQCCABAAgAIAACQCAAAAAAAAAAAAIGAAAACABIAgAAAQAAEEAAAAACIAAAAAAAAAAAAAAAAAAAAAAAAAAAAAAAAAA==

>  <PUBCHEM_IUPAC_OPENEYE_NAME>  (1) 
2-aminopentanoic acid

>  <PUBCHEM_IUPAC_CAS_NAME>  (1) 
2-aminopentanoic acid

>  <PUBCHEM_IUPAC_NAME_MARKUP>  (1) 
2-aminopentanoic acid

>  <PUBCHEM_IUPAC_NAME>  (1) 
2-aminopentanoic acid

>  <PUBCHEM_IUPAC_SYSTEMATIC_NAME>  (1) 
2-azanylpentanoic acid

>  <PUBCHEM_IUPAC_TRADITIONAL_NAME>  (1) 
2-aminovaleric acid

>  <PUBCHEM_IUPAC_INCHI>  (1) 
InChI=1S/C5H11NO2/c1-2-3-4(6)5(7)8/h4H,2-3,6H2,1H3,(H,7,8)

>  <PUBCHEM_IUPAC_INCHIKEY>  (1) 
SNDPXSYFESPGGJ-UHFFFAOYSA-N

>  <PUBCHEM_XLOGP3>  (1) 
-2.1

>  <PUBCHEM_EXACT_MASS>  (1) 
117.078979

>  <PUBCHEM_MOLECULAR_FORMULA>  (1) 
C5H11NO2

>  <PUBCHEM_MOLECULAR_WEIGHT>  (1) 
117.15

>  <PUBCHEM_OPENEYE_CAN_SMILES>  (1) 
CCCC(C(=O)O)N

>  <PUBCHEM_OPENEYE_ISO_SMILES>  (1) 
CCCC(C(=O)O)N

>  <PUBCHEM_CACTVS_TPSA>  (1) 
63.3

>  <PUBCHEM_MONOISOTOPIC_WEIGHT>  (1) 
117.078979

>  <PUBCHEM_TOTAL_CHARGE>  (1) 
0

>  <PUBCHEM_HEAVY_ATOM_COUNT>  (1) 
8

>  <PUBCHEM_ATOM_DEF_STEREO_COUNT>  (1) 
0

>  <PUBCHEM_ATOM_UDEF_STEREO_COUNT>  (1) 
1

>  <PUBCHEM_BOND_DEF_STEREO_COUNT>  (1) 
0

>  <PUBCHEM_BOND_UDEF_STEREO_COUNT>  (1) 
0

>  <PUBCHEM_ISOTOPIC_ATOM_COUNT>  (1) 
0

>  <PUBCHEM_COMPONENT_COUNT>  (1) 
1

>  <PUBCHEM_CACTVS_TAUTO_COUNT>  (1) 
-1

>  <PUBCHEM_COORDINATE_TYPE>  (1) 
1
5
255

>  <PUBCHEM_BONDANNOTATIONS>  (1) 
5  3  3

$$$$
