827
     RDKit          2D

 10  9  0  0  1  0  0  0  0  0999 V2000
    0.0000   -2.1000    0.0000 O   0  0  0  0  0  0  0  0  0  0  0  0
   -1.2990    1.6500    0.0000 O   0  0  0  0  0  0  0  0  0  0  0  0
    1.2990    1.6500    0.0000 O   0  0  0  0  0  0  0  0  0  0  0  0
   -3.8971    0.1500    0.0000 O   0  0  0  0  0  0  0  0  0  0  0  0
    3.8971    0.1500    0.0000 O   0  0  0  0  0  0  0  0  0  0  0  0
    0.0000   -0.6000    0.0000 C   0  0  0  0  0  0  0  0  0  0  0  0
   -1.2990    0.1500    0.0000 C   0  0  0  0  0  0  0  0  0  0  0  0
    1.2990    0.1500    0.0000 C   0  0  0  0  0  0  0  0  0  0  0  0
   -2.5981   -0.6000    0.0000 C   0  0  0  0  0  0  0  0  0  0  0  0
    2.5981   -0.6000    0.0000 C   0  0  0  0  0  0  0  0  0  0  0  0
  1  6  1  0
  2  7  1  0
  3  8  1  0
  4  9  1  0
  5 10  1  0
  6  7  1  0
  6  8  1  0
  7  9  1  0
  8 10  1  0
M  END
>  <PUBCHEM_COMPOUND_CID>  (1) 
827

>  <PUBCHEM_COMPOUND_CANONICALIZED>  (1) 
1

>  <PUBCHEM_CACTVS_COMPLEXITY>  (1) 
76.1

>  <PUBCHEM_CACTVS_HBOND_ACCEPTOR>  (1) 
5

>  <PUBCHEM_CACTVS_HBOND_DONOR>  (1) 
5

>  <PUBCHEM_CACTVS_ROTATABLE_BOND>  (1) 
4

>  <PUBCHEM_CACTVS_SUBSKEYS>  (1) 
AAADccBgOAAAAAAAAAAAAAAAAAAAAAAAAAAAAAAAAAAAAAAAAAAAGgAACAAACBSggAIAAAAAAgAAAAAAAAAAAAAAAAAAAAAAAAABEAIAAAAAQAAFAAABAADAIAAAAAAAAAAAAAAAAAAAAAAAAAAAAAAAAA==

>  <PUBCHEM_IUPAC_OPENEYE_NAME>  (1) 
pentane-1,2,3,4,5-pentol

>  <PUBCHEM_IUPAC_CAS_NAME>  (1) 
pentane-1,2,3,4,5-pentol

>  <PUBCHEM_IUPAC_NAME_MARKUP>  (1) 
pentane-1,2,3,4,5-pentol

>  <PUBCHEM_IUPAC_NAME>  (1) 
pentane-1,2,3,4,5-pentol

>  <PUBCHEM_IUPAC_SYSTEMATIC_NAME>  (1) 
pentane-1,2,3,4,5-pentol

>  <PUBCHEM_IUPAC_TRADITIONAL_NAME>  (1) 
pentane-1,2,3,4,5-pentol

>  <PUBCHEM_IUPAC_INCHI>  (1) 
InChI=1S/C5H12O5/c6-1-3(8)5(10)4(9)2-7/h3-10H,1-2H2

>  <PUBCHEM_IUPAC_INCHIKEY>  (1) 
HEBKCHPVOIAQTA-UHFFFAOYSA-N

>  <PUBCHEM_XLOGP3>  (1) 
-2.5

>  <PUBCHEM_EXACT_MASS>  (1) 
152.068473

>  <PUBCHEM_MOLECULAR_FORMULA>  (1) 
C5H12O5

>  <PUBCHEM_MOLECULAR_WEIGHT>  (1) 
152.15

>  <PUBCHEM_OPENEYE_CAN_SMILES>  (1) 
C(C(C(C(CO)O)O)O)O

>  <PUBCHEM_OPENEYE_ISO_SMILES>  (1) 
C(C(C(C(CO)O)O)O)O

>  <PUBCHEM_CACTVS_TPSA>  (1) 
101

>  <PUBCHEM_MONOISOTOPIC_WEIGHT>  (1) 
152.068473

>  <PUBCHEM_TOTAL_CHARGE>  (1) 
0

>  <PUBCHEM_HEAVY_ATOM_COUNT>  (1) 
10

>  <PUBCHEM_ATOM_DEF_STEREO_COUNT>  (1) 
0

>  <PUBCHEM_ATOM_UDEF_STEREO_COUNT>  (1) 
2

>  <PUBCHEM_BOND_DEF_STEREO_COUNT>  (1) 
0

>  <PUBCHEM_BOND_UDEF_STEREO_COUNT>  (1) 
0

>  <PUBCHEM_ISOTOPIC_ATOM_COUNT>  (1) 
0

>  <PUBCHEM_COMPONENT_COUNT>  (1) 
1

>  <PUBCHEM_CACTVS_TAUTO_COUNT>  (1) 
-1

>  <PUBCHEM_COORDINATE_TYPE>  (1) 
1
5
255

>  <PUBCHEM_BONDANNOTATIONS>  (1) 
7  2  3
8  3  3

$$$$
