834
     RDKit          2D

 14 13  0  0  1  0  0  0  0  0999 V2000
    0.6446    0.3835    0.0000 S   0  0  0  0  0  0  0  0  0  0  0  0
   -5.8403   -0.4514    0.0000 O   0  0  0  0  0  0  0  0  0  0  0  0
   -4.5708    1.8154    0.0000 O   0  0  0  0  0  0  0  0  0  0  0  0
    5.8403    0.4514    0.0000 O   0  0  0  0  0  0  0  0  0  0  0  0
    4.5708   -1.8154    0.0000 O   0  0  0  0  0  0  0  0  0  0  0  0
   -3.2228   -1.9173    0.0000 N   0  0  0  0  0  0  0  0  0  0  0  0
    3.2228    1.9173    0.0000 N   0  0  0  0  0  0  0  0  0  0  0  0
   -1.9533    0.3495    0.0000 C   0  0  0  0  0  0  0  0  0  0  0  0
   -3.2424   -0.4174    0.0000 C   0  0  0  0  0  0  0  0  0  0  0  0
   -0.6446   -0.3835    0.0000 C   0  0  0  0  0  0  0  0  0  0  0  0
    1.9533   -0.3495    0.0000 C   0  0  0  0  0  0  0  0  0  0  0  0
    3.2424    0.4174    0.0000 C   0  0  0  0  0  0  0  0  0  0  0  0
   -4.5511    0.3155    0.0000 C   0  0  0  0  0  0  0  0  0  0  0  0
    4.5511   -0.3155    0.0000 C   0  0  0  0  0  0  0  0  0  0  0  0
  1 10  1  0
  1 11  1  0
  2 13  1  0
  3 13  2  0
  4 14  1  0
  5 14  2  0
  6  9  1  0
  7 12  1  0
  8  9  1  0
  8 10  1  0
  9 13  1  0
 11 12  1  0
 12 14  1  0
M  END
>  <PUBCHEM_COMPOUND_CID>  (1) 
834

>  <PUBCHEM_COMPOUND_CANONICALIZED>  (1) 
1

>  <PUBCHEM_CACTVS_COMPLEXITY>  (1) 
212

>  <PUBCHEM_CACTVS_HBOND_ACCEPTOR>  (1) 
7

>  <PUBCHEM_CACTVS_HBOND_DONOR>  (1) 
4

>  <PUBCHEM_CACTVS_ROTATABLE_BOND>  (1) 
7

>  <PUBCHEM_CACTVS_SUBSKEYS>  (1) 
AAADccBjOABAAAAAAAAAAAAAAAAAAAAAAAAAAAAAAAAAAAAAAAAAHgQQCAAACCjFwASACABAAggIAACQCAAAAAAAABAAAIGAAAACABAgAAAAQAAEEAAgAAAAAAAAAAAAAAAAAAAAAAAAAAAAAAAAAAAAAA==

>  <PUBCHEM_IUPAC_OPENEYE_NAME>  (1) 
2-amino-4-(2-amino-2-carboxy-ethyl)sulfanyl-butanoic acid

>  <PUBCHEM_IUPAC_CAS_NAME>  (1) 
2-amino-4-[(2-amino-2-carboxyethyl)thio]butanoic acid

>  <PUBCHEM_IUPAC_NAME_MARKUP>  (1) 
2-amino-4-(2-amino-2-carboxyethyl)sulfanylbutanoic acid

>  <PUBCHEM_IUPAC_NAME>  (1) 
2-amino-4-(2-amino-2-carboxyethyl)sulfanylbutanoic acid

>  <PUBCHEM_IUPAC_SYSTEMATIC_NAME>  (1) 
2-azanyl-4-(2-azanyl-3-oxidanyl-3-oxidanylidene-propyl)sulfanyl-butanoic acid

>  <PUBCHEM_IUPAC_TRADITIONAL_NAME>  (1) 
2-amino-4-[(2-amino-2-carboxy-ethyl)thio]butyric acid

>  <PUBCHEM_IUPAC_INCHI>  (1) 
InChI=1S/C7H14N2O4S/c8-4(6(10)11)1-2-14-3-5(9)7(12)13/h4-5H,1-3,8-9H2,(H,10,11)(H,12,13)

>  <PUBCHEM_IUPAC_INCHIKEY>  (1) 
ILRYLPWNYFXEMH-UHFFFAOYSA-N

>  <PUBCHEM_XLOGP3_AA>  (1) 
-6

>  <PUBCHEM_EXACT_MASS>  (1) 
222.067428

>  <PUBCHEM_MOLECULAR_FORMULA>  (1) 
C7H14N2O4S

>  <PUBCHEM_MOLECULAR_WEIGHT>  (1) 
222.26

>  <PUBCHEM_OPENEYE_CAN_SMILES>  (1) 
C(CSCC(C(=O)O)N)C(C(=O)O)N

>  <PUBCHEM_OPENEYE_ISO_SMILES>  (1) 
C(CSCC(C(=O)O)N)C(C(=O)O)N

>  <PUBCHEM_CACTVS_TPSA>  (1) 
152

>  <PUBCHEM_MONOISOTOPIC_WEIGHT>  (1) 
222.067428

>  <PUBCHEM_TOTAL_CHARGE>  (1) 
0

>  <PUBCHEM_HEAVY_ATOM_COUNT>  (1) 
14

>  <PUBCHEM_ATOM_DEF_STEREO_COUNT>  (1) 
0

>  <PUBCHEM_ATOM_UDEF_STEREO_COUNT>  (1) 
2

>  <PUBCHEM_BOND_DEF_STEREO_COUNT>  (1) 
0

>  <PUBCHEM_BOND_UDEF_STEREO_COUNT>  (1) 
0

>  <PUBCHEM_ISOTOPIC_ATOM_COUNT>  (1) 
0

>  <PUBCHEM_COMPONENT_COUNT>  (1) 
1

>  <PUBCHEM_CACTVS_TAUTO_COUNT>  (1) 
-1

>  <PUBCHEM_COORDINATE_TYPE>  (1) 
1
5
255

>  <PUBCHEM_BONDANNOTATIONS>  (1) 
9  6  3
12  7  3

$$$$
