835
     RDKit          2D

 12 12  0  0  1  0  0  0  0  0999 V2000
   -0.3621   -1.3848    0.0000 O   0  0  0  0  0  0  0  0  0  0  0  0
    2.4128    1.5170    0.0000 O   0  0  0  0  0  0  0  0  0  0  0  0
    4.2407   -0.8618    0.0000 O   0  0  0  0  0  0  0  0  0  0  0  0
   -0.4083    2.4964    0.0000 O   0  0  0  0  0  0  0  0  0  0  0  0
   -3.3528    1.0894    0.0000 O   0  0  0  0  0  0  0  0  0  0  0  0
   -2.9245   -2.1458    0.0000 O   0  0  0  0  0  0  0  0  0  0  0  0
    0.3527   -0.0660    0.0000 C   0  0  0  0  0  0  0  0  0  0  0  0
    1.8397    0.1308    0.0000 C   0  0  0  0  0  0  0  0  0  0  0  0
   -0.6806    1.0213    0.0000 C   0  0  0  0  0  0  0  0  0  0  0  0
    2.7537   -1.0586    0.0000 C   0  0  0  0  0  0  0  0  0  0  0  0
   -2.0340    0.3746    0.0000 C   0  0  0  0  0  0  0  0  0  0  0  0
   -1.8372   -1.1125    0.0000 C   0  0  0  0  0  0  0  0  0  0  0  0
  1  7  1  0
  1 12  1  0
  2  8  1  0
  3 10  1  0
  4  9  2  0
  5 11  2  0
  6 12  2  0
  7  8  1  0
  7  9  1  0
  8 10  1  0
  9 11  1  0
 11 12  1  0
M  END
>  <PUBCHEM_COMPOUND_CID>  (1) 
835

>  <PUBCHEM_COMPOUND_CANONICALIZED>  (1) 
1

>  <PUBCHEM_CACTVS_COMPLEXITY>  (1) 
244

>  <PUBCHEM_CACTVS_HBOND_ACCEPTOR>  (1) 
6

>  <PUBCHEM_CACTVS_HBOND_DONOR>  (1) 
2

>  <PUBCHEM_CACTVS_ROTATABLE_BOND>  (1) 
2

>  <PUBCHEM_CACTVS_SUBSKEYS>  (1) 
AAADcYBgOAAAAAAAAAAAAAAAAAAAASAAAAAAAAAAAAAAAAAAAAAAGgAACAAACBSggAIACAAABgAIAICQCAIAAAAAAAAAAAFAAAABEBYIAAQCQAAFIAADAAGKbARAAAAAAAAAAAAAAAAAAAAAAAAAAAAAAA==

>  <PUBCHEM_IUPAC_OPENEYE_NAME>  (1) 
5-(1,2-dihydroxyethyl)tetrahydrofuran-2,3,4-trione

>  <PUBCHEM_IUPAC_CAS_NAME>  (1) 
5-(1,2-dihydroxyethyl)oxolane-2,3,4-trione

>  <PUBCHEM_IUPAC_NAME_MARKUP>  (1) 
5-(1,2-dihydroxyethyl)oxolane-2,3,4-trione

>  <PUBCHEM_IUPAC_NAME>  (1) 
5-(1,2-dihydroxyethyl)oxolane-2,3,4-trione

>  <PUBCHEM_IUPAC_SYSTEMATIC_NAME>  (1) 
5-[1,2-bis(oxidanyl)ethyl]oxolane-2,3,4-trione

>  <PUBCHEM_IUPAC_TRADITIONAL_NAME>  (1) 
5-(1,2-dihydroxyethyl)tetrahydrofuran-2,3,4-trione

>  <PUBCHEM_IUPAC_INCHI>  (1) 
InChI=1S/C6H6O6/c7-1-2(8)5-3(9)4(10)6(11)12-5/h2,5,7-8H,1H2

>  <PUBCHEM_IUPAC_INCHIKEY>  (1) 
SBJKKFFYIZUCET-UHFFFAOYSA-N

>  <PUBCHEM_XLOGP3_AA>  (1) 
-1

>  <PUBCHEM_EXACT_MASS>  (1) 
174.016438

>  <PUBCHEM_MOLECULAR_FORMULA>  (1) 
C6H6O6

>  <PUBCHEM_MOLECULAR_WEIGHT>  (1) 
174.11

>  <PUBCHEM_OPENEYE_CAN_SMILES>  (1) 
C(C(C1C(=O)C(=O)C(=O)O1)O)O

>  <PUBCHEM_OPENEYE_ISO_SMILES>  (1) 
C(C(C1C(=O)C(=O)C(=O)O1)O)O

>  <PUBCHEM_CACTVS_TPSA>  (1) 
101

>  <PUBCHEM_MONOISOTOPIC_WEIGHT>  (1) 
174.016438

>  <PUBCHEM_TOTAL_CHARGE>  (1) 
0

>  <PUBCHEM_HEAVY_ATOM_COUNT>  (1) 
12

>  <PUBCHEM_ATOM_DEF_STEREO_COUNT>  (1) 
0

>  <PUBCHEM_ATOM_UDEF_STEREO_COUNT>  (1) 
2

>  <PUBCHEM_BOND_DEF_STEREO_COUNT>  (1) 
0

>  <PUBCHEM_BOND_UDEF_STEREO_COUNT>  (1) 
0

>  <PUBCHEM_ISOTOPIC_ATOM_COUNT>  (1) 
0

>  <PUBCHEM_COMPONENT_COUNT>  (1) 
1

>  <PUBCHEM_CACTVS_TAUTO_COUNT>  (1) 
-1

>  <PUBCHEM_COORDINATE_TYPE>  (1) 
1
5
255

>  <PUBCHEM_BONDANNOTATIONS>  (1) 
8  2  3
7  9  3

$$$$
