838
     RDKit          2D

 13 13  0  0  1  0  0  0  0  0999 V2000
   -2.1672   -2.1000    0.0000 O   0  0  0  0  0  0  0  0  0  0  0  0
    2.5284    2.4499    0.0000 O   0  0  0  0  0  0  0  0  0  0  0  0
    4.3551    0.0702    0.0000 O   0  0  0  0  0  0  0  0  0  0  0  0
   -3.9939    0.2798    0.0000 N   0  0  0  0  0  0  0  0  0  0  0  0
   -1.5934   -0.7140    0.0000 C   0  0  0  0  0  0  0  0  0  0  0  0
   -0.1063   -0.5180    0.0000 C   0  0  0  0  0  0  0  0  0  0  0  0
   -2.5068    0.4758    0.0000 C   0  0  0  0  0  0  0  0  0  0  0  0
    0.4675    0.8680    0.0000 C   0  0  0  0  0  0  0  0  0  0  0  0
    0.8071   -1.7078    0.0000 C   0  0  0  0  0  0  0  0  0  0  0  0
    1.9546    1.0640    0.0000 C   0  0  0  0  0  0  0  0  0  0  0  0
    2.2942   -1.5118    0.0000 C   0  0  0  0  0  0  0  0  0  0  0  0
    2.8680   -0.1258    0.0000 C   0  0  0  0  0  0  0  0  0  0  0  0
   -4.9073    1.4696    0.0000 C   0  0  0  0  0  0  0  0  0  0  0  0
  1  5  1  0
  2 10  1  0
  3 12  1  0
  4  7  1  0
  4 13  1  0
  5  6  1  0
  5  7  1  0
  6  8  2  0
  6  9  1  0
  8 10  1  0
  9 11  2  0
 10 12  2  0
 11 12  1  0
M  END
>  <PUBCHEM_COMPOUND_CID>  (1) 
838

>  <PUBCHEM_COMPOUND_CANONICALIZED>  (1) 
1

>  <PUBCHEM_CACTVS_COMPLEXITY>  (1) 
154

>  <PUBCHEM_CACTVS_HBOND_ACCEPTOR>  (1) 
4

>  <PUBCHEM_CACTVS_HBOND_DONOR>  (1) 
4

>  <PUBCHEM_CACTVS_ROTATABLE_BOND>  (1) 
3

>  <PUBCHEM_CACTVS_SUBSKEYS>  (1) 
AAADccByMAAAAAAAAAAAAAAAAAAAAAAAAAAwAAAAAAAAAAABAAAAHgAQCAAADBThmAYyBoLAAgCAAiBCAAACAAAgIAAIiIAOiIgLNiKCkROEcAEk0BEZmAfQ8LYOIAABAAAAQABAAAIAAACAAAAAAAAAAA==

>  <PUBCHEM_IUPAC_OPENEYE_NAME>  (1) 
4-[1-hydroxy-2-(methylamino)ethyl]benzene-1,2-diol

>  <PUBCHEM_IUPAC_CAS_NAME>  (1) 
4-[1-hydroxy-2-(methylamino)ethyl]benzene-1,2-diol

>  <PUBCHEM_IUPAC_NAME_MARKUP>  (1) 
4-[1-hydroxy-2-(methylamino)ethyl]benzene-1,2-diol

>  <PUBCHEM_IUPAC_NAME>  (1) 
4-[1-hydroxy-2-(methylamino)ethyl]benzene-1,2-diol

>  <PUBCHEM_IUPAC_SYSTEMATIC_NAME>  (1) 
4-[2-(methylamino)-1-oxidanyl-ethyl]benzene-1,2-diol

>  <PUBCHEM_IUPAC_TRADITIONAL_NAME>  (1) 
4-[1-hydroxy-2-(methylamino)ethyl]pyrocatechol

>  <PUBCHEM_IUPAC_INCHI>  (1) 
InChI=1S/C9H13NO3/c1-10-5-9(13)6-2-3-7(11)8(12)4-6/h2-4,9-13H,5H2,1H3

>  <PUBCHEM_IUPAC_INCHIKEY>  (1) 
UCTWMZQNUQWSLP-UHFFFAOYSA-N

>  <PUBCHEM_XLOGP3>  (1) 
-1.4

>  <PUBCHEM_EXACT_MASS>  (1) 
183.089543

>  <PUBCHEM_MOLECULAR_FORMULA>  (1) 
C9H13NO3

>  <PUBCHEM_MOLECULAR_WEIGHT>  (1) 
183.2

>  <PUBCHEM_OPENEYE_CAN_SMILES>  (1) 
CNCC(C1=CC(=C(C=C1)O)O)O

>  <PUBCHEM_OPENEYE_ISO_SMILES>  (1) 
CNCC(C1=CC(=C(C=C1)O)O)O

>  <PUBCHEM_CACTVS_TPSA>  (1) 
72.7

>  <PUBCHEM_MONOISOTOPIC_WEIGHT>  (1) 
183.089543

>  <PUBCHEM_TOTAL_CHARGE>  (1) 
0

>  <PUBCHEM_HEAVY_ATOM_COUNT>  (1) 
13

>  <PUBCHEM_ATOM_DEF_STEREO_COUNT>  (1) 
0

>  <PUBCHEM_ATOM_UDEF_STEREO_COUNT>  (1) 
1

>  <PUBCHEM_BOND_DEF_STEREO_COUNT>  (1) 
0

>  <PUBCHEM_BOND_UDEF_STEREO_COUNT>  (1) 
0

>  <PUBCHEM_ISOTOPIC_ATOM_COUNT>  (1) 
0

>  <PUBCHEM_COMPONENT_COUNT>  (1) 
1

>  <PUBCHEM_CACTVS_TAUTO_COUNT>  (1) 
-1

>  <PUBCHEM_COORDINATE_TYPE>  (1) 
1
5
255

>  <PUBCHEM_BONDANNOTATIONS>  (1) 
5  1  3
10  12  8
11  12  8
6  8  8
6  9  8
8  10  8
9  11  8

$$$$
