841
     RDKit          2D

 11 10  0  0  1  0  0  0  0  0999 V2000
    0.8413    1.9521    0.0000 O   0  0  0  0  0  0  0  0  0  0  0  0
   -0.0123   -1.9236    0.0000 O   0  0  0  0  0  0  0  0  0  0  0  0
    2.5681   -1.6211    0.0000 O   0  0  0  0  0  0  0  0  0  0  0  0
   -1.7391    1.6496    0.0000 O   0  0  0  0  0  0  0  0  0  0  0  0
   -4.1449   -0.1427    0.0000 O   0  0  0  0  0  0  0  0  0  0  0  0
    1.0159    0.4623    0.0000 C   0  0  0  0  0  0  0  0  0  0  0  0
   -0.1869   -0.4338    0.0000 C   0  0  0  0  0  0  0  0  0  0  0  0
    2.3935   -0.1313    0.0000 C   0  0  0  0  0  0  0  0  0  0  0  0
    3.5963    0.7649    0.0000 C   0  0  0  0  0  0  0  0  0  0  0  0
   -1.5645    0.1598    0.0000 C   0  0  0  0  0  0  0  0  0  0  0  0
   -2.7674   -0.7363    0.0000 C   0  0  0  0  0  0  0  0  0  0  0  0
  1  6  1  0
  2  7  1  0
  3  8  1  0
  4 10  2  0
  5 11  1  0
  6  7  1  0
  6  8  1  0
  7 10  1  0
  8  9  1  0
 10 11  1  0
M  END
>  <PUBCHEM_COMPOUND_CID>  (1) 
841

>  <PUBCHEM_COMPOUND_CANONICALIZED>  (1) 
1

>  <PUBCHEM_CACTVS_COMPLEXITY>  (1) 
135

>  <PUBCHEM_CACTVS_HBOND_ACCEPTOR>  (1) 
5

>  <PUBCHEM_CACTVS_HBOND_DONOR>  (1) 
4

>  <PUBCHEM_CACTVS_ROTATABLE_BOND>  (1) 
4

>  <PUBCHEM_CACTVS_SUBSKEYS>  (1) 
AAADccBgOAAAAAAAAAAAAAAAAAAAAAAAAAAAAAAAAAAAAAAAAAAAGgAACAAACBSggAICAAAAAgAIAIAQAAIAAAAAAAAAAAFAAAABEBYAAAAAQAAFIAABAAHKYAQAAAAAAAAAAAAAAAAAAAAAAAAAAAAAAA==

>  <PUBCHEM_IUPAC_OPENEYE_NAME>  (1) 
1,3,4,5-tetrahydroxyhexan-2-one

>  <PUBCHEM_IUPAC_CAS_NAME>  (1) 
1,3,4,5-tetrahydroxy-2-hexanone

>  <PUBCHEM_IUPAC_NAME_MARKUP>  (1) 
1,3,4,5-tetrahydroxyhexan-2-one

>  <PUBCHEM_IUPAC_NAME>  (1) 
1,3,4,5-tetrahydroxyhexan-2-one

>  <PUBCHEM_IUPAC_SYSTEMATIC_NAME>  (1) 
1,3,4,5-tetrakis(oxidanyl)hexan-2-one

>  <PUBCHEM_IUPAC_TRADITIONAL_NAME>  (1) 
1,3,4,5-tetrahydroxyhexan-2-one

>  <PUBCHEM_IUPAC_INCHI>  (1) 
InChI=1S/C6H12O5/c1-3(8)5(10)6(11)4(9)2-7/h3,5-8,10-11H,2H2,1H3

>  <PUBCHEM_IUPAC_INCHIKEY>  (1) 
QZNPNKJXABGCRC-UHFFFAOYSA-N

>  <PUBCHEM_XLOGP3_AA>  (1) 
-2.2

>  <PUBCHEM_EXACT_MASS>  (1) 
164.068473

>  <PUBCHEM_MOLECULAR_FORMULA>  (1) 
C6H12O5

>  <PUBCHEM_MOLECULAR_WEIGHT>  (1) 
164.16

>  <PUBCHEM_OPENEYE_CAN_SMILES>  (1) 
CC(C(C(C(=O)CO)O)O)O

>  <PUBCHEM_OPENEYE_ISO_SMILES>  (1) 
CC(C(C(C(=O)CO)O)O)O

>  <PUBCHEM_CACTVS_TPSA>  (1) 
98

>  <PUBCHEM_MONOISOTOPIC_WEIGHT>  (1) 
164.068473

>  <PUBCHEM_TOTAL_CHARGE>  (1) 
0

>  <PUBCHEM_HEAVY_ATOM_COUNT>  (1) 
11

>  <PUBCHEM_ATOM_DEF_STEREO_COUNT>  (1) 
0

>  <PUBCHEM_ATOM_UDEF_STEREO_COUNT>  (1) 
3

>  <PUBCHEM_BOND_DEF_STEREO_COUNT>  (1) 
0

>  <PUBCHEM_BOND_UDEF_STEREO_COUNT>  (1) 
0

>  <PUBCHEM_ISOTOPIC_ATOM_COUNT>  (1) 
0

>  <PUBCHEM_COMPONENT_COUNT>  (1) 
1

>  <PUBCHEM_CACTVS_TAUTO_COUNT>  (1) 
-1

>  <PUBCHEM_COORDINATE_TYPE>  (1) 
1
5
255

>  <PUBCHEM_BONDANNOTATIONS>  (1) 
6  1  3
7  2  3
8  3  3

$$$$
