842
     RDKit          2D

 16 15  0  0  1  0  0  0  0  0999 V2000
   -4.3273    2.1429    0.0000 S   0  0  0  0  0  0  0  0  0  0  0  0
   -0.3992    1.5767    0.0000 O   0  0  0  0  0  0  0  0  0  0  0  0
    6.1944   -0.3658    0.0000 O   0  0  0  0  0  0  0  0  0  0  0  0
   -5.5192   -0.1656    0.0000 O   0  0  0  0  0  0  0  0  0  0  0  0
    4.7912    1.8207    0.0000 O   0  0  0  0  0  0  0  0  0  0  0  0
   -4.1160   -2.3521    0.0000 O   0  0  0  0  0  0  0  0  0  0  0  0
   -1.5912   -0.7318    0.0000 N   0  0  0  0  0  0  0  0  0  0  0  0
    3.6697   -1.9861    0.0000 N   0  0  0  0  0  0  0  0  0  0  0  0
    2.2664    0.2004    0.0000 C   0  0  0  0  0  0  0  0  0  0  0  0
    1.0040   -0.6098    0.0000 C   0  0  0  0  0  0  0  0  0  0  0  0
    3.5992   -0.4878    0.0000 C   0  0  0  0  0  0  0  0  0  0  0  0
   -2.9240   -0.0436    0.0000 C   0  0  0  0  0  0  0  0  0  0  0  0
   -0.3288    0.0784    0.0000 C   0  0  0  0  0  0  0  0  0  0  0  0
   -2.9945    1.4547    0.0000 C   0  0  0  0  0  0  0  0  0  0  0  0
    4.8616    0.3224    0.0000 C   0  0  0  0  0  0  0  0  0  0  0  0
   -4.1864   -0.8538    0.0000 C   0  0  0  0  0  0  0  0  0  0  0  0
  1 14  1  0
  2 13  2  0
  3 15  1  0
  4 16  1  0
  5 15  2  0
  6 16  2  0
  7 12  1  0
  7 13  1  0
  8 11  1  0
  9 10  1  0
  9 11  1  0
 10 13  1  0
 11 15  1  0
 12 14  1  0
 12 16  1  0
M  END
>  <PUBCHEM_COMPOUND_CID>  (1) 
842

>  <PUBCHEM_COMPOUND_CANONICALIZED>  (1) 
1

>  <PUBCHEM_CACTVS_COMPLEXITY>  (1) 
284

>  <PUBCHEM_CACTVS_HBOND_ACCEPTOR>  (1) 
7

>  <PUBCHEM_CACTVS_HBOND_DONOR>  (1) 
5

>  <PUBCHEM_CACTVS_ROTATABLE_BOND>  (1) 
7

>  <PUBCHEM_CACTVS_SUBSKEYS>  (1) 
AAADccBzOABAAAAAAAAAAAAAAAAAAAAAAAAAAAAAAAAAAAAAAAAAHgQQCAAACCjFwASACALAAgQIAAGQGAAAAAAAAAAAAIGIAAACABIAgCAEQAAEFgCQAACcFwIAAAAAAAAAAAAAAAAAAAAAAAAAAAAAAA==

>  <PUBCHEM_IUPAC_OPENEYE_NAME>  (1) 
2-amino-5-[(1-carboxy-2-sulfanyl-ethyl)amino]-5-oxo-pentanoic acid

>  <PUBCHEM_IUPAC_CAS_NAME>  (1) 
2-amino-5-[(1-carboxy-2-mercaptoethyl)amino]-5-oxopentanoic acid

>  <PUBCHEM_IUPAC_NAME_MARKUP>  (1) 
2-amino-5-[(1-carboxy-2-sulfanylethyl)amino]-5-oxopentanoic acid

>  <PUBCHEM_IUPAC_NAME>  (1) 
2-amino-5-[(1-carboxy-2-sulfanylethyl)amino]-5-oxopentanoic acid

>  <PUBCHEM_IUPAC_SYSTEMATIC_NAME>  (1) 
2-azanyl-5-oxidanylidene-5-[(1-oxidanyl-1-oxidanylidene-3-sulfanyl-propan-2-yl)amino]pentanoic acid

>  <PUBCHEM_IUPAC_TRADITIONAL_NAME>  (1) 
2-amino-5-[(1-carboxy-2-mercapto-ethyl)amino]-5-keto-valeric acid

>  <PUBCHEM_IUPAC_INCHI>  (1) 
InChI=1S/C8H14N2O5S/c9-4(7(12)13)1-2-6(11)10-5(3-16)8(14)15/h4-5,16H,1-3,9H2,(H,10,11)(H,12,13)(H,14,15)

>  <PUBCHEM_IUPAC_INCHIKEY>  (1) 
RITKHVBHSGLULN-UHFFFAOYSA-N

>  <PUBCHEM_XLOGP3_AA>  (1) 
-3.8

>  <PUBCHEM_EXACT_MASS>  (1) 
250.062343

>  <PUBCHEM_MOLECULAR_FORMULA>  (1) 
C8H14N2O5S

>  <PUBCHEM_MOLECULAR_WEIGHT>  (1) 
250.27

>  <PUBCHEM_OPENEYE_CAN_SMILES>  (1) 
C(CC(=O)NC(CS)C(=O)O)C(C(=O)O)N

>  <PUBCHEM_OPENEYE_ISO_SMILES>  (1) 
C(CC(=O)NC(CS)C(=O)O)C(C(=O)O)N

>  <PUBCHEM_CACTVS_TPSA>  (1) 
131

>  <PUBCHEM_MONOISOTOPIC_WEIGHT>  (1) 
250.062343

>  <PUBCHEM_TOTAL_CHARGE>  (1) 
0

>  <PUBCHEM_HEAVY_ATOM_COUNT>  (1) 
16

>  <PUBCHEM_ATOM_DEF_STEREO_COUNT>  (1) 
0

>  <PUBCHEM_ATOM_UDEF_STEREO_COUNT>  (1) 
2

>  <PUBCHEM_BOND_DEF_STEREO_COUNT>  (1) 
0

>  <PUBCHEM_BOND_UDEF_STEREO_COUNT>  (1) 
0

>  <PUBCHEM_ISOTOPIC_ATOM_COUNT>  (1) 
0

>  <PUBCHEM_COMPONENT_COUNT>  (1) 
1

>  <PUBCHEM_CACTVS_TAUTO_COUNT>  (1) 
-1

>  <PUBCHEM_COORDINATE_TYPE>  (1) 
1
5
255

>  <PUBCHEM_BONDANNOTATIONS>  (1) 
12  14  3
11  8  3

$$$$
