845
     RDKit          2D

 14 14  0  0  1  0  0  0  0  0999 V2000
    3.8931    0.0105    0.0000 P   0  0  0  0  0  0  0  0  0  0  0  0
    2.4804   -0.4938    0.0000 O   0  0  0  0  0  0  0  0  0  0  0  0
    3.3888    1.4231    0.0000 O   0  0  0  0  0  0  0  0  0  0  0  0
    5.3058    0.5148    0.0000 O   0  0  0  0  0  0  0  0  0  0  0  0
    4.3974   -1.4022    0.0000 O   0  0  0  0  0  0  0  0  0  0  0  0
   -0.3449   -1.5025    0.0000 N   0  0  0  0  0  0  0  0  0  0  0  0
   -3.0535   -0.9993    0.0000 N   0  0  0  0  0  0  0  0  0  0  0  0
   -5.0572    0.3703    0.0000 N   0  0  0  0  0  0  0  0  0  0  0  0
   -0.0754   -0.0269    0.0000 C   0  0  0  0  0  0  0  0  0  0  0  0
   -1.2184    0.9444    0.0000 C   0  0  0  0  0  0  0  0  0  0  0  0
    1.3373    0.4774    0.0000 C   0  0  0  0  0  0  0  0  0  0  0  0
   -2.6311    0.4400    0.0000 C   0  0  0  0  0  0  0  0  0  0  0  0
   -3.8695    1.2865    0.0000 C   0  0  0  0  0  0  0  0  0  0  0  0
   -4.5529   -1.0424    0.0000 C   0  0  0  0  0  0  0  0  0  0  0  0
  1  2  1  0
  1  3  1  0
  1  4  1  0
  1  5  2  0
  2 11  1  0
  6  9  1  0
  7 12  1  0
  7 14  1  0
  8 13  1  0
  8 14  2  0
  9 10  1  0
  9 11  1  0
 10 12  1  0
 12 13  2  0
M  END
>  <PUBCHEM_COMPOUND_CID>  (1) 
845

>  <PUBCHEM_COMPOUND_CANONICALIZED>  (1) 
1

>  <PUBCHEM_CACTVS_COMPLEXITY>  (1) 
221

>  <PUBCHEM_CACTVS_HBOND_ACCEPTOR>  (1) 
6

>  <PUBCHEM_CACTVS_HBOND_DONOR>  (1) 
4

>  <PUBCHEM_CACTVS_ROTATABLE_BOND>  (1) 
5

>  <PUBCHEM_CACTVS_SUBSKEYS>  (1) 
AAADccBjOAIAAAAAAAAAAAAAAAAAAWAAAAAAAAAAAAAAAAABgAAAHgAQCCAACCjhlgYtkBbJkRCgQRRnZIAAgC2xEqABUYA4cAiCaAJA2QGUAAAMkAJAQCCwEAIAAAAAAAAAAAAAAAAAAAAAAAAAAAAAAA==

>  <PUBCHEM_IUPAC_OPENEYE_NAME>  (1) 
[2-amino-3-(1H-imidazol-5-yl)propyl] dihydrogen phosphate

>  <PUBCHEM_IUPAC_CAS_NAME>  (1) 
[2-amino-3-(1H-imidazol-5-yl)propyl] dihydrogen phosphate

>  <PUBCHEM_IUPAC_NAME_MARKUP>  (1) 
[2-amino-3-(1<I>H</I>-imidazol-5-yl)propyl] dihydrogen phosphate

>  <PUBCHEM_IUPAC_NAME>  (1) 
[2-amino-3-(1H-imidazol-5-yl)propyl] dihydrogen phosphate

>  <PUBCHEM_IUPAC_SYSTEMATIC_NAME>  (1) 
[2-azanyl-3-(1H-imidazol-5-yl)propyl] dihydrogen phosphate

>  <PUBCHEM_IUPAC_TRADITIONAL_NAME>  (1) 
[2-amino-3-(1H-imidazol-5-yl)propyl] dihydrogen phosphate

>  <PUBCHEM_IUPAC_INCHI>  (1) 
InChI=1S/C6H12N3O4P/c7-5(3-13-14(10,11)12)1-6-2-8-4-9-6/h2,4-5H,1,3,7H2,(H,8,9)(H2,10,11,12)

>  <PUBCHEM_IUPAC_INCHIKEY>  (1) 
CWNDERHTHMWBSI-UHFFFAOYSA-N

>  <PUBCHEM_XLOGP3_AA>  (1) 
-4.6

>  <PUBCHEM_EXACT_MASS>  (1) 
221.056543

>  <PUBCHEM_MOLECULAR_FORMULA>  (1) 
C6H12N3O4P

>  <PUBCHEM_MOLECULAR_WEIGHT>  (1) 
221.15

>  <PUBCHEM_OPENEYE_CAN_SMILES>  (1) 
C1=C(NC=N1)CC(COP(=O)(O)O)N

>  <PUBCHEM_OPENEYE_ISO_SMILES>  (1) 
C1=C(NC=N1)CC(COP(=O)(O)O)N

>  <PUBCHEM_CACTVS_TPSA>  (1) 
122

>  <PUBCHEM_MONOISOTOPIC_WEIGHT>  (1) 
221.056543

>  <PUBCHEM_TOTAL_CHARGE>  (1) 
0

>  <PUBCHEM_HEAVY_ATOM_COUNT>  (1) 
14

>  <PUBCHEM_ATOM_DEF_STEREO_COUNT>  (1) 
0

>  <PUBCHEM_ATOM_UDEF_STEREO_COUNT>  (1) 
1

>  <PUBCHEM_BOND_DEF_STEREO_COUNT>  (1) 
0

>  <PUBCHEM_BOND_UDEF_STEREO_COUNT>  (1) 
0

>  <PUBCHEM_ISOTOPIC_ATOM_COUNT>  (1) 
0

>  <PUBCHEM_COMPONENT_COUNT>  (1) 
1

>  <PUBCHEM_CACTVS_TAUTO_COUNT>  (1) 
-1

>  <PUBCHEM_COORDINATE_TYPE>  (1) 
1
5
255

>  <PUBCHEM_BONDANNOTATIONS>  (1) 
12  13  8
9  6  3
7  12  8
7  14  8
8  13  8
8  14  8

$$$$
