852
     RDKit          2D

 10  9  0  0  1  0  0  0  0  0999 V2000
    0.7500   -1.8187    0.0000 O   0  0  0  0  0  0  0  0  0  0  0  0
   -3.0000   -0.5196    0.0000 O   0  0  0  0  0  0  0  0  0  0  0  0
    3.0000   -0.5196    0.0000 O   0  0  0  0  0  0  0  0  0  0  0  0
   -0.7500   -1.8187    0.0000 O   0  0  0  0  0  0  0  0  0  0  0  0
   -1.5000    2.0785    0.0000 N   0  0  0  0  0  0  0  0  0  0  0  0
    0.7500    0.7794    0.0000 C   0  0  0  0  0  0  0  0  0  0  0  0
   -0.7500    0.7794    0.0000 C   0  0  0  0  0  0  0  0  0  0  0  0
    1.5000    2.0785    0.0000 C   0  0  0  0  0  0  0  0  0  0  0  0
    1.5000   -0.5196    0.0000 C   0  0  0  0  0  0  0  0  0  0  0  0
   -1.5000   -0.5196    0.0000 C   0  0  0  0  0  0  0  0  0  0  0  0
  1  9  1  0
  2 10  1  0
  3  9  2  0
  4 10  2  0
  5  7  1  0
  6  7  1  0
  6  8  1  0
  6  9  1  0
  7 10  1  0
M  END
>  <PUBCHEM_COMPOUND_CID>  (1) 
852

>  <PUBCHEM_COMPOUND_CANONICALIZED>  (1) 
1

>  <PUBCHEM_CACTVS_COMPLEXITY>  (1) 
156

>  <PUBCHEM_CACTVS_HBOND_ACCEPTOR>  (1) 
5

>  <PUBCHEM_CACTVS_HBOND_DONOR>  (1) 
3

>  <PUBCHEM_CACTVS_ROTATABLE_BOND>  (1) 
3

>  <PUBCHEM_CACTVS_SUBSKEYS>  (1) 
AAADccBiOAAAAAAAAAAAAAAAAAAAAAAAAAAAAAAAAAAAAAAAAAAAHgAQCAAADSjBgAQCCABAAgAIAACQCAAAAAAAAAAAAIGAAAACABgAAAAAQAAGEAAAAABDAAAIAAAAAAAAAAAAAAAAAAAAAAAAAAAAAA==

>  <PUBCHEM_IUPAC_OPENEYE_NAME>  (1) 
2-amino-3-methyl-butanedioic acid

>  <PUBCHEM_IUPAC_CAS_NAME>  (1) 
2-amino-3-methylbutanedioic acid

>  <PUBCHEM_IUPAC_NAME_MARKUP>  (1) 
2-amino-3-methylbutanedioic acid

>  <PUBCHEM_IUPAC_NAME>  (1) 
2-amino-3-methylbutanedioic acid

>  <PUBCHEM_IUPAC_SYSTEMATIC_NAME>  (1) 
2-azanyl-3-methyl-butanedioic acid

>  <PUBCHEM_IUPAC_TRADITIONAL_NAME>  (1) 
2-amino-3-methyl-succinic acid

>  <PUBCHEM_IUPAC_INCHI>  (1) 
InChI=1S/C5H9NO4/c1-2(4(7)8)3(6)5(9)10/h2-3H,6H2,1H3,(H,7,8)(H,9,10)

>  <PUBCHEM_IUPAC_INCHIKEY>  (1) 
LXRUAYBIUSUULX-UHFFFAOYSA-N

>  <PUBCHEM_XLOGP3_AA>  (1) 
-3.3

>  <PUBCHEM_EXACT_MASS>  (1) 
147.053158

>  <PUBCHEM_MOLECULAR_FORMULA>  (1) 
C5H9NO4

>  <PUBCHEM_MOLECULAR_WEIGHT>  (1) 
147.13

>  <PUBCHEM_OPENEYE_CAN_SMILES>  (1) 
CC(C(C(=O)O)N)C(=O)O

>  <PUBCHEM_OPENEYE_ISO_SMILES>  (1) 
CC(C(C(=O)O)N)C(=O)O

>  <PUBCHEM_CACTVS_TPSA>  (1) 
101

>  <PUBCHEM_MONOISOTOPIC_WEIGHT>  (1) 
147.053158

>  <PUBCHEM_TOTAL_CHARGE>  (1) 
0

>  <PUBCHEM_HEAVY_ATOM_COUNT>  (1) 
10

>  <PUBCHEM_ATOM_DEF_STEREO_COUNT>  (1) 
0

>  <PUBCHEM_ATOM_UDEF_STEREO_COUNT>  (1) 
2

>  <PUBCHEM_BOND_DEF_STEREO_COUNT>  (1) 
0

>  <PUBCHEM_BOND_UDEF_STEREO_COUNT>  (1) 
0

>  <PUBCHEM_ISOTOPIC_ATOM_COUNT>  (1) 
0

>  <PUBCHEM_COMPONENT_COUNT>  (1) 
1

>  <PUBCHEM_CACTVS_TAUTO_COUNT>  (1) 
-1

>  <PUBCHEM_COORDINATE_TYPE>  (1) 
1
5
255

>  <PUBCHEM_BONDANNOTATIONS>  (1) 
7  5  3
6  8  3

$$$$
