856
     RDKit          2D

 31 34  0  0  1  0  0  0  0  0999 V2000
    6.9862   -2.6297    0.0000 O   0  0  0  0  0  0  0  0  0  0  0  0
   -1.2248    1.0555    0.0000 C   0  0  0  0  0  0  0  0  0  0  0  0
   -0.0086    1.9336    0.0000 C   0  0  0  0  0  0  0  0  0  0  0  0
   -2.4356    1.9408    0.0000 C   0  0  0  0  0  0  0  0  0  0  0  0
    2.8807   -0.7871    0.0000 C   0  0  0  0  0  0  0  0  0  0  0  0
    1.3599    1.3194    0.0000 C   0  0  0  0  0  0  0  0  0  0  0  0
    4.0969    0.0910    0.0000 C   0  0  0  0  0  0  0  0  0  0  0  0
    1.5122   -0.1729    0.0000 C   0  0  0  0  0  0  0  0  0  0  0  0
   -0.4679    3.3615    0.0000 C   0  0  0  0  0  0  0  0  0  0  0  0
   -1.0724   -0.4367    0.0000 C   0  0  0  0  0  0  0  0  0  0  0  0
   -1.9679    3.3660    0.0000 C   0  0  0  0  0  0  0  0  0  0  0  0
    0.2961   -1.0509    0.0000 C   0  0  0  0  0  0  0  0  0  0  0  0
    5.4654   -0.5232    0.0000 C   0  0  0  0  0  0  0  0  0  0  0  0
    2.5760    2.1974    0.0000 C   0  0  0  0  0  0  0  0  0  0  0  0
    3.9445    1.5832    0.0000 C   0  0  0  0  0  0  0  0  0  0  0  0
    3.0331   -2.2793    0.0000 C   0  0  0  0  0  0  0  0  0  0  0  0
   -3.8636    1.4816    0.0000 C   0  0  0  0  0  0  0  0  0  0  0  0
   -2.5260    0.3094    0.0000 C   0  0  0  0  0  0  0  0  0  0  0  0
    1.1091    2.9339    0.0000 C   0  0  0  0  0  0  0  0  0  0  0  0
    5.6177   -2.0155    0.0000 C   0  0  0  0  0  0  0  0  0  0  0  0
    4.4015   -2.8935    0.0000 C   0  0  0  0  0  0  0  0  0  0  0  0
    1.6646   -1.6651    0.0000 C   0  0  0  0  0  0  0  0  0  0  0  0
    6.9614   -0.6323    0.0000 C   0  0  0  0  0  0  0  0  0  0  0  0
    5.8326    0.9311    0.0000 C   0  0  0  0  0  0  0  0  0  0  0  0
   -4.1799    0.0153    0.0000 C   0  0  0  0  0  0  0  0  0  0  0  0
   -4.9753    2.4886    0.0000 C   0  0  0  0  0  0  0  0  0  0  0  0
   -5.6078   -0.4440    0.0000 C   0  0  0  0  0  0  0  0  0  0  0  0
   -5.9241   -1.9103    0.0000 C   0  0  0  0  0  0  0  0  0  0  0  0
   -7.3520   -2.3695    0.0000 C   0  0  0  0  0  0  0  0  0  0  0  0
   -7.6683   -3.8358    0.0000 C   0  0  0  0  0  0  0  0  0  0  0  0
   -8.4637   -1.3625    0.0000 C   0  0  0  0  0  0  0  0  0  0  0  0
  1 20  1  0
  2  3  1  0
  2  4  1  0
  2 10  1  0
  2 18  1  0
  3  6  1  0
  3  9  1  0
  3 19  1  0
  4 11  1  0
  4 17  1  0
  5  7  1  0
  5  8  1  0
  5 16  1  0
  5 22  1  0
  6  8  2  0
  6 14  1  0
  7 13  1  0
  7 15  1  0
  8 12  1  0
  9 11  1  0
 10 12  1  0
 13 20  1  0
 13 23  1  0
 13 24  1  0
 14 15  1  0
 16 21  1  0
 17 25  1  0
 17 26  1  0
 20 21  1  0
 25 27  1  0
 27 28  1  0
 28 29  2  3
 29 30  1  0
 29 31  1  0
M  END
>  <PUBCHEM_COMPOUND_CID>  (1) 
856

>  <PUBCHEM_COMPOUND_CANONICALIZED>  (1) 
1

>  <PUBCHEM_CACTVS_COMPLEXITY>  (1) 
767

>  <PUBCHEM_CACTVS_HBOND_ACCEPTOR>  (1) 
1

>  <PUBCHEM_CACTVS_HBOND_DONOR>  (1) 
1

>  <PUBCHEM_CACTVS_ROTATABLE_BOND>  (1) 
4

>  <PUBCHEM_CACTVS_SUBSKEYS>  (1) 
AAADcfB4IAAAAAAAAAAAAAAAAAAAAYAAAAAwQIAAAAAAAEDAAAAAGgAACAAADxSggAICAAAAAgCAAiBCAAAAAAAgAAAACAAAAAgAEAIAAQAAQAAEgAAIAAOAwPAPgAAAAAAAAABAAAYAADAAAQAACAAAAA==

>  <PUBCHEM_IUPAC_OPENEYE_NAME>  (1) 
17-(1,5-dimethylhex-4-enyl)-4,4,10,13,14-pentamethyl-2,3,5,6,7,11,12,15,16,17-decahydro-1H-cyclopenta[a]phenanthren-3-ol

>  <PUBCHEM_IUPAC_CAS_NAME>  (1) 
4,4,10,13,14-pentamethyl-17-(6-methylhept-5-en-2-yl)-2,3,5,6,7,11,12,15,16,17-decahydro-1H-cyclopenta[a]phenanthren-3-ol

>  <PUBCHEM_IUPAC_NAME_MARKUP>  (1) 
4,4,10,13,14-pentamethyl-17-(6-methylhept-5-en-2-yl)-2,3,5,6,7,11,12,15,16,17-decahydro-1<I>H</I>-cyclopenta[a]phenanthren-3-ol

>  <PUBCHEM_IUPAC_NAME>  (1) 
4,4,10,13,14-pentamethyl-17-(6-methylhept-5-en-2-yl)-2,3,5,6,7,11,12,15,16,17-decahydro-1H-cyclopenta[a]phenanthren-3-ol

>  <PUBCHEM_IUPAC_SYSTEMATIC_NAME>  (1) 
4,4,10,13,14-pentamethyl-17-(6-methylhept-5-en-2-yl)-2,3,5,6,7,11,12,15,16,17-decahydro-1H-cyclopenta[a]phenanthren-3-ol

>  <PUBCHEM_IUPAC_TRADITIONAL_NAME>  (1) 
17-(1,5-dimethylhex-4-enyl)-4,4,10,13,14-pentamethyl-2,3,5,6,7,11,12,15,16,17-decahydro-1H-cyclopenta[a]phenanthren-3-ol

>  <PUBCHEM_IUPAC_INCHI>  (1) 
InChI=1S/C30H50O/c1-20(2)10-9-11-21(3)22-14-18-30(8)24-12-13-25-27(4,5)26(31)16-17-28(25,6)23(24)15-19-29(22,30)7/h10,21-22,25-26,31H,9,11-19H2,1-8H3

>  <PUBCHEM_IUPAC_INCHIKEY>  (1) 
CAHGCLMLTWQZNJ-UHFFFAOYSA-N

>  <PUBCHEM_XLOGP3_AA>  (1) 
8.9

>  <PUBCHEM_EXACT_MASS>  (1) 
426.386166

>  <PUBCHEM_MOLECULAR_FORMULA>  (1) 
C30H50O

>  <PUBCHEM_MOLECULAR_WEIGHT>  (1) 
426.7

>  <PUBCHEM_OPENEYE_CAN_SMILES>  (1) 
CC(CCC=C(C)C)C1CCC2(C1(CCC3=C2CCC4C3(CCC(C4(C)C)O)C)C)C

>  <PUBCHEM_OPENEYE_ISO_SMILES>  (1) 
CC(CCC=C(C)C)C1CCC2(C1(CCC3=C2CCC4C3(CCC(C4(C)C)O)C)C)C

>  <PUBCHEM_CACTVS_TPSA>  (1) 
20.2

>  <PUBCHEM_MONOISOTOPIC_WEIGHT>  (1) 
426.386166

>  <PUBCHEM_TOTAL_CHARGE>  (1) 
0

>  <PUBCHEM_HEAVY_ATOM_COUNT>  (1) 
31

>  <PUBCHEM_ATOM_DEF_STEREO_COUNT>  (1) 
0

>  <PUBCHEM_ATOM_UDEF_STEREO_COUNT>  (1) 
7

>  <PUBCHEM_BOND_DEF_STEREO_COUNT>  (1) 
0

>  <PUBCHEM_BOND_UDEF_STEREO_COUNT>  (1) 
0

>  <PUBCHEM_ISOTOPIC_ATOM_COUNT>  (1) 
0

>  <PUBCHEM_COMPONENT_COUNT>  (1) 
1

>  <PUBCHEM_CACTVS_TAUTO_COUNT>  (1) 
-1

>  <PUBCHEM_COORDINATE_TYPE>  (1) 
1
5
255

>  <PUBCHEM_BONDANNOTATIONS>  (1) 
20  1  3
17  26  3
2  18  3
3  19  3
4  11  3
5  22  3
7  15  3

$$$$
