860
     RDKit          2D

 20 19  0  0  0  0  0  0  0  0999 V2000
   11.1620   -0.6473    0.0000 O   0  0  0  0  0  0  0  0  0  0  0  0
    9.9029    1.6253    0.0000 O   0  0  0  0  0  0  0  0  0  0  0  0
    4.6811    0.2173    0.0000 C   0  0  0  0  0  0  0  0  0  0  0  0
    3.3690   -0.5096    0.0000 C   0  0  0  0  0  0  0  0  0  0  0  0
    5.9667   -0.5555    0.0000 C   0  0  0  0  0  0  0  0  0  0  0  0
    2.0834    0.2632    0.0000 C   0  0  0  0  0  0  0  0  0  0  0  0
    7.2788    0.1714    0.0000 C   0  0  0  0  0  0  0  0  0  0  0  0
    0.7714   -0.4637    0.0000 C   0  0  0  0  0  0  0  0  0  0  0  0
    8.5644   -0.6014    0.0000 C   0  0  0  0  0  0  0  0  0  0  0  0
   -0.5142    0.3091    0.0000 C   0  0  0  0  0  0  0  0  0  0  0  0
    9.8764    0.1255    0.0000 C   0  0  0  0  0  0  0  0  0  0  0  0
   -1.8263   -0.4178    0.0000 C   0  0  0  0  0  0  0  0  0  0  0  0
   -3.1119    0.3550    0.0000 C   0  0  0  0  0  0  0  0  0  0  0  0
   -4.4240   -0.3719    0.0000 C   0  0  0  0  0  0  0  0  0  0  0  0
   -5.7096    0.4009    0.0000 C   0  0  0  0  0  0  0  0  0  0  0  0
   -7.0217   -0.3260    0.0000 C   0  0  0  0  0  0  0  0  0  0  0  0
   -8.3072    0.4468    0.0000 C   0  0  0  0  0  0  0  0  0  0  0  0
   -9.6193   -0.2801    0.0000 C   0  0  0  0  0  0  0  0  0  0  0  0
  -10.9049    0.4927    0.0000 C   0  0  0  0  0  0  0  0  0  0  0  0
  -12.2170   -0.2342    0.0000 C   0  0  0  0  0  0  0  0  0  0  0  0
  1 11  1  0
  2 11  2  0
  3  4  1  0
  3  5  1  0
  4  6  1  0
  5  7  1  0
  6  8  1  0
  7  9  1  0
  8 10  1  0
  9 11  1  0
 10 12  2  3
 12 13  1  0
 13 14  1  0
 14 15  2  3
 15 16  1  0
 16 17  1  0
 17 18  2  3
 18 19  1  0
 19 20  1  0
M  END
>  <PUBCHEM_COMPOUND_CID>  (1) 
860

>  <PUBCHEM_COMPOUND_CANONICALIZED>  (1) 
1

>  <PUBCHEM_CACTVS_COMPLEXITY>  (1) 
301

>  <PUBCHEM_CACTVS_HBOND_ACCEPTOR>  (1) 
2

>  <PUBCHEM_CACTVS_HBOND_DONOR>  (1) 
1

>  <PUBCHEM_CACTVS_ROTATABLE_BOND>  (1) 
13

>  <PUBCHEM_CACTVS_SUBSKEYS>  (1) 
AAADceB4MAAAAAAAAAAAAAAAAAAAAAAAAAAAAAAAAAAAAAAAAAAAGgAACAAACACAgAACCAAAAgCIACDSCAAAAAAgAAAICAEAAAgAABIAAQAAQAAEgAAIAAOIyKCAAAAAAAAAAAAAAAAAAAAAAAAAAAAAAA==

>  <PUBCHEM_IUPAC_OPENEYE_NAME>  (1) 
octadeca-9,12,15-trienoic acid

>  <PUBCHEM_IUPAC_CAS_NAME>  (1) 
octadeca-9,12,15-trienoic acid

>  <PUBCHEM_IUPAC_NAME_MARKUP>  (1) 
octadeca-9,12,15-trienoic acid

>  <PUBCHEM_IUPAC_NAME>  (1) 
octadeca-9,12,15-trienoic acid

>  <PUBCHEM_IUPAC_SYSTEMATIC_NAME>  (1) 
octadeca-9,12,15-trienoic acid

>  <PUBCHEM_IUPAC_TRADITIONAL_NAME>  (1) 
octadeca-9,12,15-trienoic acid

>  <PUBCHEM_IUPAC_INCHI>  (1) 
InChI=1S/C18H30O2/c1-2-3-4-5-6-7-8-9-10-11-12-13-14-15-16-17-18(19)20/h3-4,6-7,9-10H,2,5,8,11-17H2,1H3,(H,19,20)

>  <PUBCHEM_IUPAC_INCHIKEY>  (1) 
DTOSIQBPPRVQHS-UHFFFAOYSA-N

>  <PUBCHEM_XLOGP3>  (1) 
5.9

>  <PUBCHEM_EXACT_MASS>  (1) 
278.22458

>  <PUBCHEM_MOLECULAR_FORMULA>  (1) 
C18H30O2

>  <PUBCHEM_MOLECULAR_WEIGHT>  (1) 
278.4

>  <PUBCHEM_OPENEYE_CAN_SMILES>  (1) 
CCC=CCC=CCC=CCCCCCCCC(=O)O

>  <PUBCHEM_OPENEYE_ISO_SMILES>  (1) 
CCC=CCC=CCC=CCCCCCCCC(=O)O

>  <PUBCHEM_CACTVS_TPSA>  (1) 
37.3

>  <PUBCHEM_MONOISOTOPIC_WEIGHT>  (1) 
278.22458

>  <PUBCHEM_TOTAL_CHARGE>  (1) 
0

>  <PUBCHEM_HEAVY_ATOM_COUNT>  (1) 
20

>  <PUBCHEM_ATOM_DEF_STEREO_COUNT>  (1) 
0

>  <PUBCHEM_ATOM_UDEF_STEREO_COUNT>  (1) 
0

>  <PUBCHEM_BOND_DEF_STEREO_COUNT>  (1) 
0

>  <PUBCHEM_BOND_UDEF_STEREO_COUNT>  (1) 
3

>  <PUBCHEM_ISOTOPIC_ATOM_COUNT>  (1) 
0

>  <PUBCHEM_COMPONENT_COUNT>  (1) 
1

>  <PUBCHEM_CACTVS_TAUTO_COUNT>  (1) 
-1

>  <PUBCHEM_COORDINATE_TYPE>  (1) 
1
5
255

>  <PUBCHEM_BONDANNOTATIONS>  (1) 
10  12  1
14  15  1
17  18  1

$$$$
