91
     RDKit          2D

 12 12  0  0  0  0  0  0  0  0999 V2000
    3.1145    2.3426    0.0000 O   0  0  0  0  0  0  0  0  0  0  0  0
   -4.3304    1.4352    0.0000 O   0  0  0  0  0  0  0  0  0  0  0  0
   -4.0161   -1.1438    0.0000 O   0  0  0  0  0  0  0  0  0  0  0  0
   -1.0382   -0.7809    0.0000 C   0  0  0  0  0  0  0  0  0  0  0  0
    0.4508   -0.5994    0.0000 C   0  0  0  0  0  0  0  0  0  0  0  0
   -1.9398    0.4179    0.0000 C   0  0  0  0  0  0  0  0  0  0  0  0
    1.0382    0.7809    0.0000 C   0  0  0  0  0  0  0  0  0  0  0  0
    1.3525   -1.7981    0.0000 C   0  0  0  0  0  0  0  0  0  0  0  0
    2.5271    0.9623    0.0000 C   0  0  0  0  0  0  0  0  0  0  0  0
    2.8415   -1.6167    0.0000 C   0  0  0  0  0  0  0  0  0  0  0  0
    3.4288   -0.2364    0.0000 C   0  0  0  0  0  0  0  0  0  0  0  0
   -3.4288    0.2364    0.0000 C   0  0  0  0  0  0  0  0  0  0  0  0
  1  9  1  0
  2 12  1  0
  3 12  2  0
  4  5  1  0
  4  6  1  0
  5  7  2  0
  5  8  1  0
  6 12  1  0
  7  9  1  0
  8 10  2  0
  9 11  2  0
 10 11  1  0
M  END
>  <PUBCHEM_COMPOUND_CID>  (1) 
91

>  <PUBCHEM_COMPOUND_CANONICALIZED>  (1) 
1

>  <PUBCHEM_CACTVS_COMPLEXITY>  (1) 
156

>  <PUBCHEM_CACTVS_HBOND_ACCEPTOR>  (1) 
3

>  <PUBCHEM_CACTVS_HBOND_DONOR>  (1) 
2

>  <PUBCHEM_CACTVS_ROTATABLE_BOND>  (1) 
3

>  <PUBCHEM_CACTVS_SUBSKEYS>  (1) 
AAADccBwMAAAAAAAAAAAAAAAAAAAAAAAAAAwAAAAAAAAAAABAAAAGgAACAAADASAmAAwDoAAAgCIAiDSCAACAAAgIAAIiAEGCIgIJjKCERKAcAAkwBEImAeIyLCOAAABAAAAAAAAAAIAAAAAAAAAAAAAAA==

>  <PUBCHEM_IUPAC_OPENEYE_NAME>  (1) 
3-(3-hydroxyphenyl)propanoic acid

>  <PUBCHEM_IUPAC_CAS_NAME>  (1) 
3-(3-hydroxyphenyl)propanoic acid

>  <PUBCHEM_IUPAC_NAME_MARKUP>  (1) 
3-(3-hydroxyphenyl)propanoic acid

>  <PUBCHEM_IUPAC_NAME>  (1) 
3-(3-hydroxyphenyl)propanoic acid

>  <PUBCHEM_IUPAC_SYSTEMATIC_NAME>  (1) 
3-(3-hydroxyphenyl)propanoic acid

>  <PUBCHEM_IUPAC_TRADITIONAL_NAME>  (1) 
3-(3-hydroxyphenyl)propionic acid

>  <PUBCHEM_IUPAC_INCHI>  (1) 
InChI=1S/C9H10O3/c10-8-3-1-2-7(6-8)4-5-9(11)12/h1-3,6,10H,4-5H2,(H,11,12)

>  <PUBCHEM_IUPAC_INCHIKEY>  (1) 
QVWAEZJXDYOKEH-UHFFFAOYSA-N

>  <PUBCHEM_XLOGP3>  (1) 
1.4

>  <PUBCHEM_EXACT_MASS>  (1) 
166.062994

>  <PUBCHEM_MOLECULAR_FORMULA>  (1) 
C9H10O3

>  <PUBCHEM_MOLECULAR_WEIGHT>  (1) 
166.17

>  <PUBCHEM_OPENEYE_CAN_SMILES>  (1) 
C1=CC(=CC(=C1)O)CCC(=O)O

>  <PUBCHEM_OPENEYE_ISO_SMILES>  (1) 
C1=CC(=CC(=C1)O)CCC(=O)O

>  <PUBCHEM_CACTVS_TPSA>  (1) 
57.5

>  <PUBCHEM_MONOISOTOPIC_WEIGHT>  (1) 
166.062994

>  <PUBCHEM_TOTAL_CHARGE>  (1) 
0

>  <PUBCHEM_HEAVY_ATOM_COUNT>  (1) 
12

>  <PUBCHEM_ATOM_DEF_STEREO_COUNT>  (1) 
0

>  <PUBCHEM_ATOM_UDEF_STEREO_COUNT>  (1) 
0

>  <PUBCHEM_BOND_DEF_STEREO_COUNT>  (1) 
0

>  <PUBCHEM_BOND_UDEF_STEREO_COUNT>  (1) 
0

>  <PUBCHEM_ISOTOPIC_ATOM_COUNT>  (1) 
0

>  <PUBCHEM_COMPONENT_COUNT>  (1) 
1

>  <PUBCHEM_CACTVS_TAUTO_COUNT>  (1) 
-1

>  <PUBCHEM_COORDINATE_TYPE>  (1) 
1
5
255

>  <PUBCHEM_BONDANNOTATIONS>  (1) 
10  11  8
5  7  8
5  8  8
7  9  8
8  10  8
9  11  8

$$$$
