94
     RDKit          2D

 58 60  0  0  1  0  0  0  0  0999 V2000
  -12.9896    0.0028    0.0000 S   0  0  0  0  0  0  0  0  0  0  0  0
    5.4395   -1.7467    0.0000 P   0  0  0  0  0  0  0  0  0  0  0  0
    5.1488    3.2814    0.0000 P   0  0  0  0  0  0  0  0  0  0  0  0
    2.5510    3.2416    0.0000 P   0  0  0  0  0  0  0  0  0  0  0  0
    9.1533    0.9527    0.0000 O   0  0  0  0  0  0  0  0  0  0  0  0
    6.8730   -2.1882    0.0000 O   0  0  0  0  0  0  0  0  0  0  0  0
   10.0751   -2.8177    0.0000 O   0  0  0  0  0  0  0  0  0  0  0  0
    6.4592    2.5514    0.0000 O   0  0  0  0  0  0  0  0  0  0  0  0
    5.8811   -0.3131    0.0000 O   0  0  0  0  0  0  0  0  0  0  0  0
    4.0060   -1.3051    0.0000 O   0  0  0  0  0  0  0  0  0  0  0  0
    3.8384    4.0114    0.0000 O   0  0  0  0  0  0  0  0  0  0  0  0
    4.9979   -3.1802    0.0000 O   0  0  0  0  0  0  0  0  0  0  0  0
    1.2636    2.4717    0.0000 O   0  0  0  0  0  0  0  0  0  0  0  0
    5.8788    4.5918    0.0000 O   0  0  0  0  0  0  0  0  0  0  0  0
   -1.2651   -2.0676    0.0000 O   0  0  0  0  0  0  0  0  0  0  0  0
    4.4188    1.9710    0.0000 O   0  0  0  0  0  0  0  0  0  0  0  0
    3.3208    1.9542    0.0000 O   0  0  0  0  0  0  0  0  0  0  0  0
    1.7812    4.5290    0.0000 O   0  0  0  0  0  0  0  0  0  0  0  0
   -2.6215    1.6621    0.0000 O   0  0  0  0  0  0  0  0  0  0  0  0
   -7.8171    1.5824    0.0000 O   0  0  0  0  0  0  0  0  0  0  0  0
  -14.2540   -2.2668    0.0000 O   0  0  0  0  0  0  0  0  0  0  0  0
  -16.8518   -2.3067    0.0000 O   0  0  0  0  0  0  0  0  0  0  0  0
  -22.0703   -0.8865    0.0000 O   0  0  0  0  0  0  0  0  0  0  0  0
  -20.8059    1.3831    0.0000 O   0  0  0  0  0  0  0  0  0  0  0  0
   11.6632    0.0331    0.0000 N   0  0  0  0  0  0  0  0  0  0  0  0
   13.8650    1.0542    0.0000 N   0  0  0  0  0  0  0  0  0  0  0  0
   12.5500   -2.5601    0.0000 N   0  0  0  0  0  0  0  0  0  0  0  0
   15.1377   -2.7920    0.0000 N   0  0  0  0  0  0  0  0  0  0  0  0
   16.6324   -0.6669    0.0000 N   0  0  0  0  0  0  0  0  0  0  0  0
   -3.8859   -0.6076    0.0000 N   0  0  0  0  0  0  0  0  0  0  0  0
   -9.0815   -0.6873    0.0000 N   0  0  0  0  0  0  0  0  0  0  0  0
    7.9722   -1.1676    0.0000 C   0  0  0  0  0  0  0  0  0  0  0  0
    9.4440   -1.4569    0.0000 C   0  0  0  0  0  0  0  0  0  0  0  0
    7.7925    0.3216    0.0000 C   0  0  0  0  0  0  0  0  0  0  0  0
   10.1740   -0.1465    0.0000 C   0  0  0  0  0  0  0  0  0  0  0  0
    6.4822    1.0516    0.0000 C   0  0  0  0  0  0  0  0  0  0  0  0
   12.6839   -1.0660    0.0000 C   0  0  0  0  0  0  0  0  0  0  0  0
   12.3932    1.3435    0.0000 C   0  0  0  0  0  0  0  0  0  0  0  0
   14.0447   -0.4350    0.0000 C   0  0  0  0  0  0  0  0  0  0  0  0
   -0.0008    0.2021    0.0000 C   0  0  0  0  0  0  0  0  0  0  0  0
   -1.2881   -0.5678    0.0000 C   0  0  0  0  0  0  0  0  0  0  0  0
    1.2866    0.9719    0.0000 C   0  0  0  0  0  0  0  0  0  0  0  0
   15.2716   -1.2980    0.0000 C   0  0  0  0  0  0  0  0  0  0  0  0
   -0.7706    1.4895    0.0000 C   0  0  0  0  0  0  0  0  0  0  0  0
    0.7691   -1.0853    0.0000 C   0  0  0  0  0  0  0  0  0  0  0  0
   13.7769   -3.4230    0.0000 C   0  0  0  0  0  0  0  0  0  0  0  0
   -2.5985    0.1622    0.0000 C   0  0  0  0  0  0  0  0  0  0  0  0
   -5.1963    0.1224    0.0000 C   0  0  0  0  0  0  0  0  0  0  0  0
   -6.4837   -0.6474    0.0000 C   0  0  0  0  0  0  0  0  0  0  0  0
   -7.7941    0.0825    0.0000 C   0  0  0  0  0  0  0  0  0  0  0  0
  -10.3918    0.0427    0.0000 C   0  0  0  0  0  0  0  0  0  0  0  0
  -11.6792   -0.7271    0.0000 C   0  0  0  0  0  0  0  0  0  0  0  0
  -14.2770   -0.7670    0.0000 C   0  0  0  0  0  0  0  0  0  0  0  0
  -15.5874   -0.0370    0.0000 C   0  0  0  0  0  0  0  0  0  0  0  0
  -16.8748   -0.8068    0.0000 C   0  0  0  0  0  0  0  0  0  0  0  0
  -18.1852   -0.0769    0.0000 C   0  0  0  0  0  0  0  0  0  0  0  0
  -19.4725   -0.8467    0.0000 C   0  0  0  0  0  0  0  0  0  0  0  0
  -20.7829   -0.1167    0.0000 C   0  0  0  0  0  0  0  0  0  0  0  0
  1 52  1  0
  1 53  1  0
  2  6  1  0
  2  9  1  0
  2 10  1  0
  2 12  2  0
  3  8  1  0
  3 11  1  0
  3 14  1  0
  3 16  2  0
  4 11  1  0
  4 13  1  0
  4 17  1  0
  4 18  2  0
  5 34  1  0
  5 35  1  0
  6 32  1  0
  7 33  1  0
  8 36  1  0
 13 42  1  0
 15 41  1  0
 19 47  2  0
 20 50  2  0
 21 53  2  0
 22 55  2  0
 23 58  1  0
 24 58  2  0
 25 35  1  0
 25 37  1  0
 25 38  1  0
 26 38  2  0
 26 39  1  0
 27 37  1  0
 27 46  2  0
 28 43  2  0
 28 46  1  0
 29 43  1  0
 30 47  1  0
 30 48  1  0
 31 50  1  0
 31 51  1  0
 32 33  1  0
 32 34  1  0
 33 35  1  0
 34 36  1  0
 37 39  2  0
 39 43  1  0
 40 41  1  0
 40 42  1  0
 40 44  1  0
 40 45  1  0
 41 47  1  0
 48 49  1  0
 49 50  1  0
 51 52  1  0
 53 54  1  0
 54 55  1  0
 55 56  1  0
 56 57  1  0
 57 58  1  0
M  END
>  <PUBCHEM_COMPOUND_CID>  (1) 
94

>  <PUBCHEM_COMPOUND_CANONICALIZED>  (1) 
1

>  <PUBCHEM_CACTVS_COMPLEXITY>  (1) 
1630

>  <PUBCHEM_CACTVS_HBOND_ACCEPTOR>  (1) 
25

>  <PUBCHEM_CACTVS_HBOND_DONOR>  (1) 
10

>  <PUBCHEM_CACTVS_ROTATABLE_BOND>  (1) 
25

>  <PUBCHEM_CACTVS_SUBSKEYS>  (1) 
AAADcfB7vgNAAAAAAAAAAAAAAAAAAWJAAAAsAAAAAAAAAFgB+AAAHgQQCCAADhzl1waH+L/MFxioQYfxfIKAgC0RELABUKFoVBCDWBpoyEAeRAgPFgLzACH7eAIJAAAAAAAAAAAAAAAAAAAAAAAAAAAAAA==

>  <PUBCHEM_IUPAC_OPENEYE_NAME>  (1) 
6-[2-[3-[[4-[[[5-(6-aminopurin-9-yl)-4-hydroxy-3-phosphonooxy-tetrahydrofuran-2-yl]methoxy-hydroxy-phosphoryl]oxy-hydroxy-phosphoryl]oxy-2-hydroxy-3,3-dimethyl-butanoyl]amino]propanoylamino]ethylsulfanyl]-4,6-dioxo-hexanoic acid

>  <PUBCHEM_IUPAC_CAS_NAME>  (1) 
6-[2-[[3-[[4-[[[5-(6-aminopurin-9-yl)-4-hydroxy-3-phosphonooxy-2-oxolanyl]methoxy-hydroxyphosphoryl]oxy-hydroxyphosphoryl]oxy-2-hydroxy-3,3-dimethyl-1-oxobutyl]amino]-1-oxopropyl]amino]ethylthio]-4,6-dioxohexanoic acid

>  <PUBCHEM_IUPAC_NAME_MARKUP>  (1) 
6-[2-[3-[[4-[[[5-(6-aminopurin-9-yl)-4-hydroxy-3-phosphonooxyoxolan-2-yl]methoxy-hydroxyphosphoryl]oxy-hydroxyphosphoryl]oxy-2-hydroxy-3,3-dimethylbutanoyl]amino]propanoylamino]ethylsulfanyl]-4,6-dioxohexanoic acid

>  <PUBCHEM_IUPAC_NAME>  (1) 
6-[2-[3-[[4-[[[5-(6-aminopurin-9-yl)-4-hydroxy-3-phosphonooxyoxolan-2-yl]methoxy-hydroxyphosphoryl]oxy-hydroxyphosphoryl]oxy-2-hydroxy-3,3-dimethylbutanoyl]amino]propanoylamino]ethylsulfanyl]-4,6-dioxohexanoic acid

>  <PUBCHEM_IUPAC_SYSTEMATIC_NAME>  (1) 
6-[2-[3-[[4-[[[5-(6-aminopurin-9-yl)-4-oxidanyl-3-phosphonooxy-oxolan-2-yl]methoxy-oxidanyl-phosphoryl]oxy-oxidanyl-phosphoryl]oxy-3,3-dimethyl-2-oxidanyl-butanoyl]amino]propanoylamino]ethylsulfanyl]-4,6-bis(oxidanylidene)hexanoic acid

>  <PUBCHEM_IUPAC_TRADITIONAL_NAME>  (1) 
6-[2-[3-[[4-[[(5-adenin-9-yl-4-hydroxy-3-phosphonooxy-tetrahydrofuran-2-yl)methoxy-hydroxy-phosphoryl]oxy-hydroxy-phosphoryl]oxy-2-hydroxy-3,3-dimethyl-butanoyl]amino]propanoylamino]ethylthio]-4,6-diketo-hexanoic acid

>  <PUBCHEM_IUPAC_INCHI>  (1) 
InChI=1S/C27H42N7O20P3S/c1-27(2,22(41)25(42)30-6-5-16(36)29-7-8-58-18(39)9-14(35)3-4-17(37)38)11-51-57(48,49)54-56(46,47)50-10-15-21(53-55(43,44)45)20(40)26(52-15)34-13-33-19-23(28)31-12-32-24(19)34/h12-13,15,20-22,26,40-41H,3-11H2,1-2H3,(H,29,36)(H,30,42)(H,37,38)(H,46,47)(H,48,49)(H2,28,31,32)(H2,43,44,45)

>  <PUBCHEM_IUPAC_INCHIKEY>  (1) 
VKKKAAPGXHWXOO-UHFFFAOYSA-N

>  <PUBCHEM_XLOGP3_AA>  (1) 
-6.4

>  <PUBCHEM_EXACT_MASS>  (1) 
909.141819

>  <PUBCHEM_MOLECULAR_FORMULA>  (1) 
C27H42N7O20P3S

>  <PUBCHEM_MOLECULAR_WEIGHT>  (1) 
909.6

>  <PUBCHEM_OPENEYE_CAN_SMILES>  (1) 
CC(C)(COP(=O)(O)OP(=O)(O)OCC1C(C(C(O1)N2C=NC3=C(N=CN=C32)N)O)OP(=O)(O)O)C(C(=O)NCCC(=O)NCCSC(=O)CC(=O)CCC(=O)O)O

>  <PUBCHEM_OPENEYE_ISO_SMILES>  (1) 
CC(C)(COP(=O)(O)OP(=O)(O)OCC1C(C(C(O1)N2C=NC3=C(N=CN=C32)N)O)OP(=O)(O)O)C(C(=O)NCCC(=O)NCCSC(=O)CC(=O)CCC(=O)O)O

>  <PUBCHEM_CACTVS_TPSA>  (1) 
443

>  <PUBCHEM_MONOISOTOPIC_WEIGHT>  (1) 
909.141819

>  <PUBCHEM_TOTAL_CHARGE>  (1) 
0

>  <PUBCHEM_HEAVY_ATOM_COUNT>  (1) 
58

>  <PUBCHEM_ATOM_DEF_STEREO_COUNT>  (1) 
0

>  <PUBCHEM_ATOM_UDEF_STEREO_COUNT>  (1) 
5

>  <PUBCHEM_BOND_DEF_STEREO_COUNT>  (1) 
0

>  <PUBCHEM_BOND_UDEF_STEREO_COUNT>  (1) 
0

>  <PUBCHEM_ISOTOPIC_ATOM_COUNT>  (1) 
0

>  <PUBCHEM_COMPONENT_COUNT>  (1) 
1

>  <PUBCHEM_CACTVS_TAUTO_COUNT>  (1) 
-1

>  <PUBCHEM_COORDINATE_TYPE>  (1) 
1
5
255

>  <PUBCHEM_BONDANNOTATIONS>  (1) 
41  15  3
35  25  3
25  37  8
25  38  8
26  38  8
26  39  8
27  37  8
27  46  8
28  43  8
28  46  8
34  36  3
37  39  8
39  43  8
32  6  3
33  7  3

$$$$
